PSF EXT CMAP XPLOR AUTOG

         3 !NTITLE
* GENERATED BY CHARMM-GUI (HTTP://WWW.CHARMM-GUI.ORG) V3.7 ON AUG, 31. 2026. JOB
* INPUT GENERATION                                                              
*  DATE:     8/31/26     15:49:48      CREATED BY USER: charmm-gui              

     28116 !NATOM
         1 MEMB     1        POPC     N        NTL     -0.600000       14.0070           0
         2 MEMB     1        POPC     C12      CTL2    -0.100000       12.0110           0
         3 MEMB     1        POPC     H12A     HL       0.250000       1.00800           0
         4 MEMB     1        POPC     H12B     HL       0.250000       1.00800           0
         5 MEMB     1        POPC     C13      CTL5    -0.350000       12.0110           0
         6 MEMB     1        POPC     H13A     HL       0.250000       1.00800           0
         7 MEMB     1        POPC     H13B     HL       0.250000       1.00800           0
         8 MEMB     1        POPC     H13C     HL       0.250000       1.00800           0
         9 MEMB     1        POPC     C14      CTL5    -0.350000       12.0110           0
        10 MEMB     1        POPC     H14A     HL       0.250000       1.00800           0
        11 MEMB     1        POPC     H14B     HL       0.250000       1.00800           0
        12 MEMB     1        POPC     H14C     HL       0.250000       1.00800           0
        13 MEMB     1        POPC     C15      CTL5    -0.350000       12.0110           0
        14 MEMB     1        POPC     H15A     HL       0.250000       1.00800           0
        15 MEMB     1        POPC     H15B     HL       0.250000       1.00800           0
        16 MEMB     1        POPC     H15C     HL       0.250000       1.00800           0
        17 MEMB     1        POPC     C11      CTL2    -0.800000E-01   12.0110           0
        18 MEMB     1        POPC     H11A     HAL2     0.900000E-01   1.00800           0
        19 MEMB     1        POPC     H11B     HAL2     0.900000E-01   1.00800           0
        20 MEMB     1        POPC     P        PL        1.50000       30.9740           0
        21 MEMB     1        POPC     O13      O2L     -0.780000       15.9994           0
        22 MEMB     1        POPC     O14      O2L     -0.780000       15.9994           0
        23 MEMB     1        POPC     O12      OSLP    -0.570000       15.9994           0
        24 MEMB     1        POPC     O11      OSLP    -0.570000       15.9994           0
        25 MEMB     1        POPC     C1       CTL2    -0.800000E-01   12.0110           0
        26 MEMB     1        POPC     HA       HAL2     0.900000E-01   1.00800           0
        27 MEMB     1        POPC     HB       HAL2     0.900000E-01   1.00800           0
        28 MEMB     1        POPC     C2       CTL1     0.170000       12.0110           0
        29 MEMB     1        POPC     HS       HAL1     0.900000E-01   1.00800           0
        30 MEMB     1        POPC     O21      OSL     -0.490000       15.9994           0
        31 MEMB     1        POPC     C21      CL       0.900000       12.0110           0
        32 MEMB     1        POPC     O22      OBL     -0.630000       15.9994           0
        33 MEMB     1        POPC     C22      CTL2    -0.220000       12.0110           0
        34 MEMB     1        POPC     H2R      HAL2     0.900000E-01   1.00800           0
        35 MEMB     1        POPC     H2S      HAL2     0.900000E-01   1.00800           0
        36 MEMB     1        POPC     C3       CTL2     0.800000E-01   12.0110           0
        37 MEMB     1        POPC     HX       HAL2     0.900000E-01   1.00800           0
        38 MEMB     1        POPC     HY       HAL2     0.900000E-01   1.00800           0
        39 MEMB     1        POPC     O31      OSL     -0.490000       15.9994           0
        40 MEMB     1        POPC     C31      CL       0.900000       12.0110           0
        41 MEMB     1        POPC     O32      OBL     -0.630000       15.9994           0
        42 MEMB     1        POPC     C32      CTL2    -0.220000       12.0110           0
        43 MEMB     1        POPC     H2X      HAL2     0.900000E-01   1.00800           0
        44 MEMB     1        POPC     H2Y      HAL2     0.900000E-01   1.00800           0
        45 MEMB     1        POPC     C23      CTL2    -0.180000       12.0110           0
        46 MEMB     1        POPC     H3R      HAL2     0.900000E-01   1.00800           0
        47 MEMB     1        POPC     H3S      HAL2     0.900000E-01   1.00800           0
        48 MEMB     1        POPC     C24      CTL2    -0.180000       12.0110           0
        49 MEMB     1        POPC     H4R      HAL2     0.900000E-01   1.00800           0
        50 MEMB     1        POPC     H4S      HAL2     0.900000E-01   1.00800           0
        51 MEMB     1        POPC     C25      CTL2    -0.180000       12.0110           0
        52 MEMB     1        POPC     H5R      HAL2     0.900000E-01   1.00800           0
        53 MEMB     1        POPC     H5S      HAL2     0.900000E-01   1.00800           0
        54 MEMB     1        POPC     C26      CTL2    -0.180000       12.0110           0
        55 MEMB     1        POPC     H6R      HAL2     0.900000E-01   1.00800           0
        56 MEMB     1        POPC     H6S      HAL2     0.900000E-01   1.00800           0
        57 MEMB     1        POPC     C27      CTL2    -0.180000       12.0110           0
        58 MEMB     1        POPC     H7R      HAL2     0.900000E-01   1.00800           0
        59 MEMB     1        POPC     H7S      HAL2     0.900000E-01   1.00800           0
        60 MEMB     1        POPC     C28      CTL2    -0.180000       12.0110           0
        61 MEMB     1        POPC     H8R      HAL2     0.900000E-01   1.00800           0
        62 MEMB     1        POPC     H8S      HAL2     0.900000E-01   1.00800           0
        63 MEMB     1        POPC     C29      CEL1    -0.150000       12.0110           0
        64 MEMB     1        POPC     H91      HEL1     0.150000       1.00800           0
        65 MEMB     1        POPC     C210     CEL1    -0.150000       12.0110           0
        66 MEMB     1        POPC     H101     HEL1     0.150000       1.00800           0
        67 MEMB     1        POPC     C211     CTL2    -0.180000       12.0110           0
        68 MEMB     1        POPC     H11R     HAL2     0.900000E-01   1.00800           0
        69 MEMB     1        POPC     H11S     HAL2     0.900000E-01   1.00800           0
        70 MEMB     1        POPC     C212     CTL2    -0.180000       12.0110           0
        71 MEMB     1        POPC     H12R     HAL2     0.900000E-01   1.00800           0
        72 MEMB     1        POPC     H12S     HAL2     0.900000E-01   1.00800           0
        73 MEMB     1        POPC     C213     CTL2    -0.180000       12.0110           0
        74 MEMB     1        POPC     H13R     HAL2     0.900000E-01   1.00800           0
        75 MEMB     1        POPC     H13S     HAL2     0.900000E-01   1.00800           0
        76 MEMB     1        POPC     C214     CTL2    -0.180000       12.0110           0
        77 MEMB     1        POPC     H14R     HAL2     0.900000E-01   1.00800           0
        78 MEMB     1        POPC     H14S     HAL2     0.900000E-01   1.00800           0
        79 MEMB     1        POPC     C215     CTL2    -0.180000       12.0110           0
        80 MEMB     1        POPC     H15R     HAL2     0.900000E-01   1.00800           0
        81 MEMB     1        POPC     H15S     HAL2     0.900000E-01   1.00800           0
        82 MEMB     1        POPC     C216     CTL2    -0.180000       12.0110           0
        83 MEMB     1        POPC     H16R     HAL2     0.900000E-01   1.00800           0
        84 MEMB     1        POPC     H16S     HAL2     0.900000E-01   1.00800           0
        85 MEMB     1        POPC     C217     CTL2    -0.180000       12.0110           0
        86 MEMB     1        POPC     H17R     HAL2     0.900000E-01   1.00800           0
        87 MEMB     1        POPC     H17S     HAL2     0.900000E-01   1.00800           0
        88 MEMB     1        POPC     C218     CTL3    -0.270000       12.0110           0
        89 MEMB     1        POPC     H18R     HAL3     0.900000E-01   1.00800           0
        90 MEMB     1        POPC     H18S     HAL3     0.900000E-01   1.00800           0
        91 MEMB     1        POPC     H18T     HAL3     0.900000E-01   1.00800           0
        92 MEMB     1        POPC     C33      CTL2    -0.180000       12.0110           0
        93 MEMB     1        POPC     H3X      HAL2     0.900000E-01   1.00800           0
        94 MEMB     1        POPC     H3Y      HAL2     0.900000E-01   1.00800           0
        95 MEMB     1        POPC     C34      CTL2    -0.180000       12.0110           0
        96 MEMB     1        POPC     H4X      HAL2     0.900000E-01   1.00800           0
        97 MEMB     1        POPC     H4Y      HAL2     0.900000E-01   1.00800           0
        98 MEMB     1        POPC     C35      CTL2    -0.180000       12.0110           0
        99 MEMB     1        POPC     H5X      HAL2     0.900000E-01   1.00800           0
       100 MEMB     1        POPC     H5Y      HAL2     0.900000E-01   1.00800           0
       101 MEMB     1        POPC     C36      CTL2    -0.180000       12.0110           0
       102 MEMB     1        POPC     H6X      HAL2     0.900000E-01   1.00800           0
       103 MEMB     1        POPC     H6Y      HAL2     0.900000E-01   1.00800           0
       104 MEMB     1        POPC     C37      CTL2    -0.180000       12.0110           0
       105 MEMB     1        POPC     H7X      HAL2     0.900000E-01   1.00800           0
       106 MEMB     1        POPC     H7Y      HAL2     0.900000E-01   1.00800           0
       107 MEMB     1        POPC     C38      CTL2    -0.180000       12.0110           0
       108 MEMB     1        POPC     H8X      HAL2     0.900000E-01   1.00800           0
       109 MEMB     1        POPC     H8Y      HAL2     0.900000E-01   1.00800           0
       110 MEMB     1        POPC     C39      CTL2    -0.180000       12.0110           0
       111 MEMB     1        POPC     H9X      HAL2     0.900000E-01   1.00800           0
       112 MEMB     1        POPC     H9Y      HAL2     0.900000E-01   1.00800           0
       113 MEMB     1        POPC     C310     CTL2    -0.180000       12.0110           0
       114 MEMB     1        POPC     H10X     HAL2     0.900000E-01   1.00800           0
       115 MEMB     1        POPC     H10Y     HAL2     0.900000E-01   1.00800           0
       116 MEMB     1        POPC     C311     CTL2    -0.180000       12.0110           0
       117 MEMB     1        POPC     H11X     HAL2     0.900000E-01   1.00800           0
       118 MEMB     1        POPC     H11Y     HAL2     0.900000E-01   1.00800           0
       119 MEMB     1        POPC     C312     CTL2    -0.180000       12.0110           0
       120 MEMB     1        POPC     H12X     HAL2     0.900000E-01   1.00800           0
       121 MEMB     1        POPC     H12Y     HAL2     0.900000E-01   1.00800           0
       122 MEMB     1        POPC     C313     CTL2    -0.180000       12.0110           0
       123 MEMB     1        POPC     H13X     HAL2     0.900000E-01   1.00800           0
       124 MEMB     1        POPC     H13Y     HAL2     0.900000E-01   1.00800           0
       125 MEMB     1        POPC     C314     CTL2    -0.180000       12.0110           0
       126 MEMB     1        POPC     H14X     HAL2     0.900000E-01   1.00800           0
       127 MEMB     1        POPC     H14Y     HAL2     0.900000E-01   1.00800           0
       128 MEMB     1        POPC     C315     CTL2    -0.180000       12.0110           0
       129 MEMB     1        POPC     H15X     HAL2     0.900000E-01   1.00800           0
       130 MEMB     1        POPC     H15Y     HAL2     0.900000E-01   1.00800           0
       131 MEMB     1        POPC     C316     CTL3    -0.270000       12.0110           0
       132 MEMB     1        POPC     H16X     HAL3     0.900000E-01   1.00800           0
       133 MEMB     1        POPC     H16Y     HAL3     0.900000E-01   1.00800           0
       134 MEMB     1        POPC     H16Z     HAL3     0.900000E-01   1.00800           0
       135 MEMB     2        POPC     N        NTL     -0.600000       14.0070           0
       136 MEMB     2        POPC     C12      CTL2    -0.100000       12.0110           0
       137 MEMB     2        POPC     H12A     HL       0.250000       1.00800           0
       138 MEMB     2        POPC     H12B     HL       0.250000       1.00800           0
       139 MEMB     2        POPC     C13      CTL5    -0.350000       12.0110           0
       140 MEMB     2        POPC     H13A     HL       0.250000       1.00800           0
       141 MEMB     2        POPC     H13B     HL       0.250000       1.00800           0
       142 MEMB     2        POPC     H13C     HL       0.250000       1.00800           0
       143 MEMB     2        POPC     C14      CTL5    -0.350000       12.0110           0
       144 MEMB     2        POPC     H14A     HL       0.250000       1.00800           0
       145 MEMB     2        POPC     H14B     HL       0.250000       1.00800           0
       146 MEMB     2        POPC     H14C     HL       0.250000       1.00800           0
       147 MEMB     2        POPC     C15      CTL5    -0.350000       12.0110           0
       148 MEMB     2        POPC     H15A     HL       0.250000       1.00800           0
       149 MEMB     2        POPC     H15B     HL       0.250000       1.00800           0
       150 MEMB     2        POPC     H15C     HL       0.250000       1.00800           0
       151 MEMB     2        POPC     C11      CTL2    -0.800000E-01   12.0110           0
       152 MEMB     2        POPC     H11A     HAL2     0.900000E-01   1.00800           0
       153 MEMB     2        POPC     H11B     HAL2     0.900000E-01   1.00800           0
       154 MEMB     2        POPC     P        PL        1.50000       30.9740           0
       155 MEMB     2        POPC     O13      O2L     -0.780000       15.9994           0
       156 MEMB     2        POPC     O14      O2L     -0.780000       15.9994           0
       157 MEMB     2        POPC     O12      OSLP    -0.570000       15.9994           0
       158 MEMB     2        POPC     O11      OSLP    -0.570000       15.9994           0
       159 MEMB     2        POPC     C1       CTL2    -0.800000E-01   12.0110           0
       160 MEMB     2        POPC     HA       HAL2     0.900000E-01   1.00800           0
       161 MEMB     2        POPC     HB       HAL2     0.900000E-01   1.00800           0
       162 MEMB     2        POPC     C2       CTL1     0.170000       12.0110           0
       163 MEMB     2        POPC     HS       HAL1     0.900000E-01   1.00800           0
       164 MEMB     2        POPC     O21      OSL     -0.490000       15.9994           0
       165 MEMB     2        POPC     C21      CL       0.900000       12.0110           0
       166 MEMB     2        POPC     O22      OBL     -0.630000       15.9994           0
       167 MEMB     2        POPC     C22      CTL2    -0.220000       12.0110           0
       168 MEMB     2        POPC     H2R      HAL2     0.900000E-01   1.00800           0
       169 MEMB     2        POPC     H2S      HAL2     0.900000E-01   1.00800           0
       170 MEMB     2        POPC     C3       CTL2     0.800000E-01   12.0110           0
       171 MEMB     2        POPC     HX       HAL2     0.900000E-01   1.00800           0
       172 MEMB     2        POPC     HY       HAL2     0.900000E-01   1.00800           0
       173 MEMB     2        POPC     O31      OSL     -0.490000       15.9994           0
       174 MEMB     2        POPC     C31      CL       0.900000       12.0110           0
       175 MEMB     2        POPC     O32      OBL     -0.630000       15.9994           0
       176 MEMB     2        POPC     C32      CTL2    -0.220000       12.0110           0
       177 MEMB     2        POPC     H2X      HAL2     0.900000E-01   1.00800           0
       178 MEMB     2        POPC     H2Y      HAL2     0.900000E-01   1.00800           0
       179 MEMB     2        POPC     C23      CTL2    -0.180000       12.0110           0
       180 MEMB     2        POPC     H3R      HAL2     0.900000E-01   1.00800           0
       181 MEMB     2        POPC     H3S      HAL2     0.900000E-01   1.00800           0
       182 MEMB     2        POPC     C24      CTL2    -0.180000       12.0110           0
       183 MEMB     2        POPC     H4R      HAL2     0.900000E-01   1.00800           0
       184 MEMB     2        POPC     H4S      HAL2     0.900000E-01   1.00800           0
       185 MEMB     2        POPC     C25      CTL2    -0.180000       12.0110           0
       186 MEMB     2        POPC     H5R      HAL2     0.900000E-01   1.00800           0
       187 MEMB     2        POPC     H5S      HAL2     0.900000E-01   1.00800           0
       188 MEMB     2        POPC     C26      CTL2    -0.180000       12.0110           0
       189 MEMB     2        POPC     H6R      HAL2     0.900000E-01   1.00800           0
       190 MEMB     2        POPC     H6S      HAL2     0.900000E-01   1.00800           0
       191 MEMB     2        POPC     C27      CTL2    -0.180000       12.0110           0
       192 MEMB     2        POPC     H7R      HAL2     0.900000E-01   1.00800           0
       193 MEMB     2        POPC     H7S      HAL2     0.900000E-01   1.00800           0
       194 MEMB     2        POPC     C28      CTL2    -0.180000       12.0110           0
       195 MEMB     2        POPC     H8R      HAL2     0.900000E-01   1.00800           0
       196 MEMB     2        POPC     H8S      HAL2     0.900000E-01   1.00800           0
       197 MEMB     2        POPC     C29      CEL1    -0.150000       12.0110           0
       198 MEMB     2        POPC     H91      HEL1     0.150000       1.00800           0
       199 MEMB     2        POPC     C210     CEL1    -0.150000       12.0110           0
       200 MEMB     2        POPC     H101     HEL1     0.150000       1.00800           0
       201 MEMB     2        POPC     C211     CTL2    -0.180000       12.0110           0
       202 MEMB     2        POPC     H11R     HAL2     0.900000E-01   1.00800           0
       203 MEMB     2        POPC     H11S     HAL2     0.900000E-01   1.00800           0
       204 MEMB     2        POPC     C212     CTL2    -0.180000       12.0110           0
       205 MEMB     2        POPC     H12R     HAL2     0.900000E-01   1.00800           0
       206 MEMB     2        POPC     H12S     HAL2     0.900000E-01   1.00800           0
       207 MEMB     2        POPC     C213     CTL2    -0.180000       12.0110           0
       208 MEMB     2        POPC     H13R     HAL2     0.900000E-01   1.00800           0
       209 MEMB     2        POPC     H13S     HAL2     0.900000E-01   1.00800           0
       210 MEMB     2        POPC     C214     CTL2    -0.180000       12.0110           0
       211 MEMB     2        POPC     H14R     HAL2     0.900000E-01   1.00800           0
       212 MEMB     2        POPC     H14S     HAL2     0.900000E-01   1.00800           0
       213 MEMB     2        POPC     C215     CTL2    -0.180000       12.0110           0
       214 MEMB     2        POPC     H15R     HAL2     0.900000E-01   1.00800           0
       215 MEMB     2        POPC     H15S     HAL2     0.900000E-01   1.00800           0
       216 MEMB     2        POPC     C216     CTL2    -0.180000       12.0110           0
       217 MEMB     2        POPC     H16R     HAL2     0.900000E-01   1.00800           0
       218 MEMB     2        POPC     H16S     HAL2     0.900000E-01   1.00800           0
       219 MEMB     2        POPC     C217     CTL2    -0.180000       12.0110           0
       220 MEMB     2        POPC     H17R     HAL2     0.900000E-01   1.00800           0
       221 MEMB     2        POPC     H17S     HAL2     0.900000E-01   1.00800           0
       222 MEMB     2        POPC     C218     CTL3    -0.270000       12.0110           0
       223 MEMB     2        POPC     H18R     HAL3     0.900000E-01   1.00800           0
       224 MEMB     2        POPC     H18S     HAL3     0.900000E-01   1.00800           0
       225 MEMB     2        POPC     H18T     HAL3     0.900000E-01   1.00800           0
       226 MEMB     2        POPC     C33      CTL2    -0.180000       12.0110           0
       227 MEMB     2        POPC     H3X      HAL2     0.900000E-01   1.00800           0
       228 MEMB     2        POPC     H3Y      HAL2     0.900000E-01   1.00800           0
       229 MEMB     2        POPC     C34      CTL2    -0.180000       12.0110           0
       230 MEMB     2        POPC     H4X      HAL2     0.900000E-01   1.00800           0
       231 MEMB     2        POPC     H4Y      HAL2     0.900000E-01   1.00800           0
       232 MEMB     2        POPC     C35      CTL2    -0.180000       12.0110           0
       233 MEMB     2        POPC     H5X      HAL2     0.900000E-01   1.00800           0
       234 MEMB     2        POPC     H5Y      HAL2     0.900000E-01   1.00800           0
       235 MEMB     2        POPC     C36      CTL2    -0.180000       12.0110           0
       236 MEMB     2        POPC     H6X      HAL2     0.900000E-01   1.00800           0
       237 MEMB     2        POPC     H6Y      HAL2     0.900000E-01   1.00800           0
       238 MEMB     2        POPC     C37      CTL2    -0.180000       12.0110           0
       239 MEMB     2        POPC     H7X      HAL2     0.900000E-01   1.00800           0
       240 MEMB     2        POPC     H7Y      HAL2     0.900000E-01   1.00800           0
       241 MEMB     2        POPC     C38      CTL2    -0.180000       12.0110           0
       242 MEMB     2        POPC     H8X      HAL2     0.900000E-01   1.00800           0
       243 MEMB     2        POPC     H8Y      HAL2     0.900000E-01   1.00800           0
       244 MEMB     2        POPC     C39      CTL2    -0.180000       12.0110           0
       245 MEMB     2        POPC     H9X      HAL2     0.900000E-01   1.00800           0
       246 MEMB     2        POPC     H9Y      HAL2     0.900000E-01   1.00800           0
       247 MEMB     2        POPC     C310     CTL2    -0.180000       12.0110           0
       248 MEMB     2        POPC     H10X     HAL2     0.900000E-01   1.00800           0
       249 MEMB     2        POPC     H10Y     HAL2     0.900000E-01   1.00800           0
       250 MEMB     2        POPC     C311     CTL2    -0.180000       12.0110           0
       251 MEMB     2        POPC     H11X     HAL2     0.900000E-01   1.00800           0
       252 MEMB     2        POPC     H11Y     HAL2     0.900000E-01   1.00800           0
       253 MEMB     2        POPC     C312     CTL2    -0.180000       12.0110           0
       254 MEMB     2        POPC     H12X     HAL2     0.900000E-01   1.00800           0
       255 MEMB     2        POPC     H12Y     HAL2     0.900000E-01   1.00800           0
       256 MEMB     2        POPC     C313     CTL2    -0.180000       12.0110           0
       257 MEMB     2        POPC     H13X     HAL2     0.900000E-01   1.00800           0
       258 MEMB     2        POPC     H13Y     HAL2     0.900000E-01   1.00800           0
       259 MEMB     2        POPC     C314     CTL2    -0.180000       12.0110           0
       260 MEMB     2        POPC     H14X     HAL2     0.900000E-01   1.00800           0
       261 MEMB     2        POPC     H14Y     HAL2     0.900000E-01   1.00800           0
       262 MEMB     2        POPC     C315     CTL2    -0.180000       12.0110           0
       263 MEMB     2        POPC     H15X     HAL2     0.900000E-01   1.00800           0
       264 MEMB     2        POPC     H15Y     HAL2     0.900000E-01   1.00800           0
       265 MEMB     2        POPC     C316     CTL3    -0.270000       12.0110           0
       266 MEMB     2        POPC     H16X     HAL3     0.900000E-01   1.00800           0
       267 MEMB     2        POPC     H16Y     HAL3     0.900000E-01   1.00800           0
       268 MEMB     2        POPC     H16Z     HAL3     0.900000E-01   1.00800           0
       269 MEMB     3        POPC     N        NTL     -0.600000       14.0070           0
       270 MEMB     3        POPC     C12      CTL2    -0.100000       12.0110           0
       271 MEMB     3        POPC     H12A     HL       0.250000       1.00800           0
       272 MEMB     3        POPC     H12B     HL       0.250000       1.00800           0
       273 MEMB     3        POPC     C13      CTL5    -0.350000       12.0110           0
       274 MEMB     3        POPC     H13A     HL       0.250000       1.00800           0
       275 MEMB     3        POPC     H13B     HL       0.250000       1.00800           0
       276 MEMB     3        POPC     H13C     HL       0.250000       1.00800           0
       277 MEMB     3        POPC     C14      CTL5    -0.350000       12.0110           0
       278 MEMB     3        POPC     H14A     HL       0.250000       1.00800           0
       279 MEMB     3        POPC     H14B     HL       0.250000       1.00800           0
       280 MEMB     3        POPC     H14C     HL       0.250000       1.00800           0
       281 MEMB     3        POPC     C15      CTL5    -0.350000       12.0110           0
       282 MEMB     3        POPC     H15A     HL       0.250000       1.00800           0
       283 MEMB     3        POPC     H15B     HL       0.250000       1.00800           0
       284 MEMB     3        POPC     H15C     HL       0.250000       1.00800           0
       285 MEMB     3        POPC     C11      CTL2    -0.800000E-01   12.0110           0
       286 MEMB     3        POPC     H11A     HAL2     0.900000E-01   1.00800           0
       287 MEMB     3        POPC     H11B     HAL2     0.900000E-01   1.00800           0
       288 MEMB     3        POPC     P        PL        1.50000       30.9740           0
       289 MEMB     3        POPC     O13      O2L     -0.780000       15.9994           0
       290 MEMB     3        POPC     O14      O2L     -0.780000       15.9994           0
       291 MEMB     3        POPC     O12      OSLP    -0.570000       15.9994           0
       292 MEMB     3        POPC     O11      OSLP    -0.570000       15.9994           0
       293 MEMB     3        POPC     C1       CTL2    -0.800000E-01   12.0110           0
       294 MEMB     3        POPC     HA       HAL2     0.900000E-01   1.00800           0
       295 MEMB     3        POPC     HB       HAL2     0.900000E-01   1.00800           0
       296 MEMB     3        POPC     C2       CTL1     0.170000       12.0110           0
       297 MEMB     3        POPC     HS       HAL1     0.900000E-01   1.00800           0
       298 MEMB     3        POPC     O21      OSL     -0.490000       15.9994           0
       299 MEMB     3        POPC     C21      CL       0.900000       12.0110           0
       300 MEMB     3        POPC     O22      OBL     -0.630000       15.9994           0
       301 MEMB     3        POPC     C22      CTL2    -0.220000       12.0110           0
       302 MEMB     3        POPC     H2R      HAL2     0.900000E-01   1.00800           0
       303 MEMB     3        POPC     H2S      HAL2     0.900000E-01   1.00800           0
       304 MEMB     3        POPC     C3       CTL2     0.800000E-01   12.0110           0
       305 MEMB     3        POPC     HX       HAL2     0.900000E-01   1.00800           0
       306 MEMB     3        POPC     HY       HAL2     0.900000E-01   1.00800           0
       307 MEMB     3        POPC     O31      OSL     -0.490000       15.9994           0
       308 MEMB     3        POPC     C31      CL       0.900000       12.0110           0
       309 MEMB     3        POPC     O32      OBL     -0.630000       15.9994           0
       310 MEMB     3        POPC     C32      CTL2    -0.220000       12.0110           0
       311 MEMB     3        POPC     H2X      HAL2     0.900000E-01   1.00800           0
       312 MEMB     3        POPC     H2Y      HAL2     0.900000E-01   1.00800           0
       313 MEMB     3        POPC     C23      CTL2    -0.180000       12.0110           0
       314 MEMB     3        POPC     H3R      HAL2     0.900000E-01   1.00800           0
       315 MEMB     3        POPC     H3S      HAL2     0.900000E-01   1.00800           0
       316 MEMB     3        POPC     C24      CTL2    -0.180000       12.0110           0
       317 MEMB     3        POPC     H4R      HAL2     0.900000E-01   1.00800           0
       318 MEMB     3        POPC     H4S      HAL2     0.900000E-01   1.00800           0
       319 MEMB     3        POPC     C25      CTL2    -0.180000       12.0110           0
       320 MEMB     3        POPC     H5R      HAL2     0.900000E-01   1.00800           0
       321 MEMB     3        POPC     H5S      HAL2     0.900000E-01   1.00800           0
       322 MEMB     3        POPC     C26      CTL2    -0.180000       12.0110           0
       323 MEMB     3        POPC     H6R      HAL2     0.900000E-01   1.00800           0
       324 MEMB     3        POPC     H6S      HAL2     0.900000E-01   1.00800           0
       325 MEMB     3        POPC     C27      CTL2    -0.180000       12.0110           0
       326 MEMB     3        POPC     H7R      HAL2     0.900000E-01   1.00800           0
       327 MEMB     3        POPC     H7S      HAL2     0.900000E-01   1.00800           0
       328 MEMB     3        POPC     C28      CTL2    -0.180000       12.0110           0
       329 MEMB     3        POPC     H8R      HAL2     0.900000E-01   1.00800           0
       330 MEMB     3        POPC     H8S      HAL2     0.900000E-01   1.00800           0
       331 MEMB     3        POPC     C29      CEL1    -0.150000       12.0110           0
       332 MEMB     3        POPC     H91      HEL1     0.150000       1.00800           0
       333 MEMB     3        POPC     C210     CEL1    -0.150000       12.0110           0
       334 MEMB     3        POPC     H101     HEL1     0.150000       1.00800           0
       335 MEMB     3        POPC     C211     CTL2    -0.180000       12.0110           0
       336 MEMB     3        POPC     H11R     HAL2     0.900000E-01   1.00800           0
       337 MEMB     3        POPC     H11S     HAL2     0.900000E-01   1.00800           0
       338 MEMB     3        POPC     C212     CTL2    -0.180000       12.0110           0
       339 MEMB     3        POPC     H12R     HAL2     0.900000E-01   1.00800           0
       340 MEMB     3        POPC     H12S     HAL2     0.900000E-01   1.00800           0
       341 MEMB     3        POPC     C213     CTL2    -0.180000       12.0110           0
       342 MEMB     3        POPC     H13R     HAL2     0.900000E-01   1.00800           0
       343 MEMB     3        POPC     H13S     HAL2     0.900000E-01   1.00800           0
       344 MEMB     3        POPC     C214     CTL2    -0.180000       12.0110           0
       345 MEMB     3        POPC     H14R     HAL2     0.900000E-01   1.00800           0
       346 MEMB     3        POPC     H14S     HAL2     0.900000E-01   1.00800           0
       347 MEMB     3        POPC     C215     CTL2    -0.180000       12.0110           0
       348 MEMB     3        POPC     H15R     HAL2     0.900000E-01   1.00800           0
       349 MEMB     3        POPC     H15S     HAL2     0.900000E-01   1.00800           0
       350 MEMB     3        POPC     C216     CTL2    -0.180000       12.0110           0
       351 MEMB     3        POPC     H16R     HAL2     0.900000E-01   1.00800           0
       352 MEMB     3        POPC     H16S     HAL2     0.900000E-01   1.00800           0
       353 MEMB     3        POPC     C217     CTL2    -0.180000       12.0110           0
       354 MEMB     3        POPC     H17R     HAL2     0.900000E-01   1.00800           0
       355 MEMB     3        POPC     H17S     HAL2     0.900000E-01   1.00800           0
       356 MEMB     3        POPC     C218     CTL3    -0.270000       12.0110           0
       357 MEMB     3        POPC     H18R     HAL3     0.900000E-01   1.00800           0
       358 MEMB     3        POPC     H18S     HAL3     0.900000E-01   1.00800           0
       359 MEMB     3        POPC     H18T     HAL3     0.900000E-01   1.00800           0
       360 MEMB     3        POPC     C33      CTL2    -0.180000       12.0110           0
       361 MEMB     3        POPC     H3X      HAL2     0.900000E-01   1.00800           0
       362 MEMB     3        POPC     H3Y      HAL2     0.900000E-01   1.00800           0
       363 MEMB     3        POPC     C34      CTL2    -0.180000       12.0110           0
       364 MEMB     3        POPC     H4X      HAL2     0.900000E-01   1.00800           0
       365 MEMB     3        POPC     H4Y      HAL2     0.900000E-01   1.00800           0
       366 MEMB     3        POPC     C35      CTL2    -0.180000       12.0110           0
       367 MEMB     3        POPC     H5X      HAL2     0.900000E-01   1.00800           0
       368 MEMB     3        POPC     H5Y      HAL2     0.900000E-01   1.00800           0
       369 MEMB     3        POPC     C36      CTL2    -0.180000       12.0110           0
       370 MEMB     3        POPC     H6X      HAL2     0.900000E-01   1.00800           0
       371 MEMB     3        POPC     H6Y      HAL2     0.900000E-01   1.00800           0
       372 MEMB     3        POPC     C37      CTL2    -0.180000       12.0110           0
       373 MEMB     3        POPC     H7X      HAL2     0.900000E-01   1.00800           0
       374 MEMB     3        POPC     H7Y      HAL2     0.900000E-01   1.00800           0
       375 MEMB     3        POPC     C38      CTL2    -0.180000       12.0110           0
       376 MEMB     3        POPC     H8X      HAL2     0.900000E-01   1.00800           0
       377 MEMB     3        POPC     H8Y      HAL2     0.900000E-01   1.00800           0
       378 MEMB     3        POPC     C39      CTL2    -0.180000       12.0110           0
       379 MEMB     3        POPC     H9X      HAL2     0.900000E-01   1.00800           0
       380 MEMB     3        POPC     H9Y      HAL2     0.900000E-01   1.00800           0
       381 MEMB     3        POPC     C310     CTL2    -0.180000       12.0110           0
       382 MEMB     3        POPC     H10X     HAL2     0.900000E-01   1.00800           0
       383 MEMB     3        POPC     H10Y     HAL2     0.900000E-01   1.00800           0
       384 MEMB     3        POPC     C311     CTL2    -0.180000       12.0110           0
       385 MEMB     3        POPC     H11X     HAL2     0.900000E-01   1.00800           0
       386 MEMB     3        POPC     H11Y     HAL2     0.900000E-01   1.00800           0
       387 MEMB     3        POPC     C312     CTL2    -0.180000       12.0110           0
       388 MEMB     3        POPC     H12X     HAL2     0.900000E-01   1.00800           0
       389 MEMB     3        POPC     H12Y     HAL2     0.900000E-01   1.00800           0
       390 MEMB     3        POPC     C313     CTL2    -0.180000       12.0110           0
       391 MEMB     3        POPC     H13X     HAL2     0.900000E-01   1.00800           0
       392 MEMB     3        POPC     H13Y     HAL2     0.900000E-01   1.00800           0
       393 MEMB     3        POPC     C314     CTL2    -0.180000       12.0110           0
       394 MEMB     3        POPC     H14X     HAL2     0.900000E-01   1.00800           0
       395 MEMB     3        POPC     H14Y     HAL2     0.900000E-01   1.00800           0
       396 MEMB     3        POPC     C315     CTL2    -0.180000       12.0110           0
       397 MEMB     3        POPC     H15X     HAL2     0.900000E-01   1.00800           0
       398 MEMB     3        POPC     H15Y     HAL2     0.900000E-01   1.00800           0
       399 MEMB     3        POPC     C316     CTL3    -0.270000       12.0110           0
       400 MEMB     3        POPC     H16X     HAL3     0.900000E-01   1.00800           0
       401 MEMB     3        POPC     H16Y     HAL3     0.900000E-01   1.00800           0
       402 MEMB     3        POPC     H16Z     HAL3     0.900000E-01   1.00800           0
       403 MEMB     4        POPC     N        NTL     -0.600000       14.0070           0
       404 MEMB     4        POPC     C12      CTL2    -0.100000       12.0110           0
       405 MEMB     4        POPC     H12A     HL       0.250000       1.00800           0
       406 MEMB     4        POPC     H12B     HL       0.250000       1.00800           0
       407 MEMB     4        POPC     C13      CTL5    -0.350000       12.0110           0
       408 MEMB     4        POPC     H13A     HL       0.250000       1.00800           0
       409 MEMB     4        POPC     H13B     HL       0.250000       1.00800           0
       410 MEMB     4        POPC     H13C     HL       0.250000       1.00800           0
       411 MEMB     4        POPC     C14      CTL5    -0.350000       12.0110           0
       412 MEMB     4        POPC     H14A     HL       0.250000       1.00800           0
       413 MEMB     4        POPC     H14B     HL       0.250000       1.00800           0
       414 MEMB     4        POPC     H14C     HL       0.250000       1.00800           0
       415 MEMB     4        POPC     C15      CTL5    -0.350000       12.0110           0
       416 MEMB     4        POPC     H15A     HL       0.250000       1.00800           0
       417 MEMB     4        POPC     H15B     HL       0.250000       1.00800           0
       418 MEMB     4        POPC     H15C     HL       0.250000       1.00800           0
       419 MEMB     4        POPC     C11      CTL2    -0.800000E-01   12.0110           0
       420 MEMB     4        POPC     H11A     HAL2     0.900000E-01   1.00800           0
       421 MEMB     4        POPC     H11B     HAL2     0.900000E-01   1.00800           0
       422 MEMB     4        POPC     P        PL        1.50000       30.9740           0
       423 MEMB     4        POPC     O13      O2L     -0.780000       15.9994           0
       424 MEMB     4        POPC     O14      O2L     -0.780000       15.9994           0
       425 MEMB     4        POPC     O12      OSLP    -0.570000       15.9994           0
       426 MEMB     4        POPC     O11      OSLP    -0.570000       15.9994           0
       427 MEMB     4        POPC     C1       CTL2    -0.800000E-01   12.0110           0
       428 MEMB     4        POPC     HA       HAL2     0.900000E-01   1.00800           0
       429 MEMB     4        POPC     HB       HAL2     0.900000E-01   1.00800           0
       430 MEMB     4        POPC     C2       CTL1     0.170000       12.0110           0
       431 MEMB     4        POPC     HS       HAL1     0.900000E-01   1.00800           0
       432 MEMB     4        POPC     O21      OSL     -0.490000       15.9994           0
       433 MEMB     4        POPC     C21      CL       0.900000       12.0110           0
       434 MEMB     4        POPC     O22      OBL     -0.630000       15.9994           0
       435 MEMB     4        POPC     C22      CTL2    -0.220000       12.0110           0
       436 MEMB     4        POPC     H2R      HAL2     0.900000E-01   1.00800           0
       437 MEMB     4        POPC     H2S      HAL2     0.900000E-01   1.00800           0
       438 MEMB     4        POPC     C3       CTL2     0.800000E-01   12.0110           0
       439 MEMB     4        POPC     HX       HAL2     0.900000E-01   1.00800           0
       440 MEMB     4        POPC     HY       HAL2     0.900000E-01   1.00800           0
       441 MEMB     4        POPC     O31      OSL     -0.490000       15.9994           0
       442 MEMB     4        POPC     C31      CL       0.900000       12.0110           0
       443 MEMB     4        POPC     O32      OBL     -0.630000       15.9994           0
       444 MEMB     4        POPC     C32      CTL2    -0.220000       12.0110           0
       445 MEMB     4        POPC     H2X      HAL2     0.900000E-01   1.00800           0
       446 MEMB     4        POPC     H2Y      HAL2     0.900000E-01   1.00800           0
       447 MEMB     4        POPC     C23      CTL2    -0.180000       12.0110           0
       448 MEMB     4        POPC     H3R      HAL2     0.900000E-01   1.00800           0
       449 MEMB     4        POPC     H3S      HAL2     0.900000E-01   1.00800           0
       450 MEMB     4        POPC     C24      CTL2    -0.180000       12.0110           0
       451 MEMB     4        POPC     H4R      HAL2     0.900000E-01   1.00800           0
       452 MEMB     4        POPC     H4S      HAL2     0.900000E-01   1.00800           0
       453 MEMB     4        POPC     C25      CTL2    -0.180000       12.0110           0
       454 MEMB     4        POPC     H5R      HAL2     0.900000E-01   1.00800           0
       455 MEMB     4        POPC     H5S      HAL2     0.900000E-01   1.00800           0
       456 MEMB     4        POPC     C26      CTL2    -0.180000       12.0110           0
       457 MEMB     4        POPC     H6R      HAL2     0.900000E-01   1.00800           0
       458 MEMB     4        POPC     H6S      HAL2     0.900000E-01   1.00800           0
       459 MEMB     4        POPC     C27      CTL2    -0.180000       12.0110           0
       460 MEMB     4        POPC     H7R      HAL2     0.900000E-01   1.00800           0
       461 MEMB     4        POPC     H7S      HAL2     0.900000E-01   1.00800           0
       462 MEMB     4        POPC     C28      CTL2    -0.180000       12.0110           0
       463 MEMB     4        POPC     H8R      HAL2     0.900000E-01   1.00800           0
       464 MEMB     4        POPC     H8S      HAL2     0.900000E-01   1.00800           0
       465 MEMB     4        POPC     C29      CEL1    -0.150000       12.0110           0
       466 MEMB     4        POPC     H91      HEL1     0.150000       1.00800           0
       467 MEMB     4        POPC     C210     CEL1    -0.150000       12.0110           0
       468 MEMB     4        POPC     H101     HEL1     0.150000       1.00800           0
       469 MEMB     4        POPC     C211     CTL2    -0.180000       12.0110           0
       470 MEMB     4        POPC     H11R     HAL2     0.900000E-01   1.00800           0
       471 MEMB     4        POPC     H11S     HAL2     0.900000E-01   1.00800           0
       472 MEMB     4        POPC     C212     CTL2    -0.180000       12.0110           0
       473 MEMB     4        POPC     H12R     HAL2     0.900000E-01   1.00800           0
       474 MEMB     4        POPC     H12S     HAL2     0.900000E-01   1.00800           0
       475 MEMB     4        POPC     C213     CTL2    -0.180000       12.0110           0
       476 MEMB     4        POPC     H13R     HAL2     0.900000E-01   1.00800           0
       477 MEMB     4        POPC     H13S     HAL2     0.900000E-01   1.00800           0
       478 MEMB     4        POPC     C214     CTL2    -0.180000       12.0110           0
       479 MEMB     4        POPC     H14R     HAL2     0.900000E-01   1.00800           0
       480 MEMB     4        POPC     H14S     HAL2     0.900000E-01   1.00800           0
       481 MEMB     4        POPC     C215     CTL2    -0.180000       12.0110           0
       482 MEMB     4        POPC     H15R     HAL2     0.900000E-01   1.00800           0
       483 MEMB     4        POPC     H15S     HAL2     0.900000E-01   1.00800           0
       484 MEMB     4        POPC     C216     CTL2    -0.180000       12.0110           0
       485 MEMB     4        POPC     H16R     HAL2     0.900000E-01   1.00800           0
       486 MEMB     4        POPC     H16S     HAL2     0.900000E-01   1.00800           0
       487 MEMB     4        POPC     C217     CTL2    -0.180000       12.0110           0
       488 MEMB     4        POPC     H17R     HAL2     0.900000E-01   1.00800           0
       489 MEMB     4        POPC     H17S     HAL2     0.900000E-01   1.00800           0
       490 MEMB     4        POPC     C218     CTL3    -0.270000       12.0110           0
       491 MEMB     4        POPC     H18R     HAL3     0.900000E-01   1.00800           0
       492 MEMB     4        POPC     H18S     HAL3     0.900000E-01   1.00800           0
       493 MEMB     4        POPC     H18T     HAL3     0.900000E-01   1.00800           0
       494 MEMB     4        POPC     C33      CTL2    -0.180000       12.0110           0
       495 MEMB     4        POPC     H3X      HAL2     0.900000E-01   1.00800           0
       496 MEMB     4        POPC     H3Y      HAL2     0.900000E-01   1.00800           0
       497 MEMB     4        POPC     C34      CTL2    -0.180000       12.0110           0
       498 MEMB     4        POPC     H4X      HAL2     0.900000E-01   1.00800           0
       499 MEMB     4        POPC     H4Y      HAL2     0.900000E-01   1.00800           0
       500 MEMB     4        POPC     C35      CTL2    -0.180000       12.0110           0
       501 MEMB     4        POPC     H5X      HAL2     0.900000E-01   1.00800           0
       502 MEMB     4        POPC     H5Y      HAL2     0.900000E-01   1.00800           0
       503 MEMB     4        POPC     C36      CTL2    -0.180000       12.0110           0
       504 MEMB     4        POPC     H6X      HAL2     0.900000E-01   1.00800           0
       505 MEMB     4        POPC     H6Y      HAL2     0.900000E-01   1.00800           0
       506 MEMB     4        POPC     C37      CTL2    -0.180000       12.0110           0
       507 MEMB     4        POPC     H7X      HAL2     0.900000E-01   1.00800           0
       508 MEMB     4        POPC     H7Y      HAL2     0.900000E-01   1.00800           0
       509 MEMB     4        POPC     C38      CTL2    -0.180000       12.0110           0
       510 MEMB     4        POPC     H8X      HAL2     0.900000E-01   1.00800           0
       511 MEMB     4        POPC     H8Y      HAL2     0.900000E-01   1.00800           0
       512 MEMB     4        POPC     C39      CTL2    -0.180000       12.0110           0
       513 MEMB     4        POPC     H9X      HAL2     0.900000E-01   1.00800           0
       514 MEMB     4        POPC     H9Y      HAL2     0.900000E-01   1.00800           0
       515 MEMB     4        POPC     C310     CTL2    -0.180000       12.0110           0
       516 MEMB     4        POPC     H10X     HAL2     0.900000E-01   1.00800           0
       517 MEMB     4        POPC     H10Y     HAL2     0.900000E-01   1.00800           0
       518 MEMB     4        POPC     C311     CTL2    -0.180000       12.0110           0
       519 MEMB     4        POPC     H11X     HAL2     0.900000E-01   1.00800           0
       520 MEMB     4        POPC     H11Y     HAL2     0.900000E-01   1.00800           0
       521 MEMB     4        POPC     C312     CTL2    -0.180000       12.0110           0
       522 MEMB     4        POPC     H12X     HAL2     0.900000E-01   1.00800           0
       523 MEMB     4        POPC     H12Y     HAL2     0.900000E-01   1.00800           0
       524 MEMB     4        POPC     C313     CTL2    -0.180000       12.0110           0
       525 MEMB     4        POPC     H13X     HAL2     0.900000E-01   1.00800           0
       526 MEMB     4        POPC     H13Y     HAL2     0.900000E-01   1.00800           0
       527 MEMB     4        POPC     C314     CTL2    -0.180000       12.0110           0
       528 MEMB     4        POPC     H14X     HAL2     0.900000E-01   1.00800           0
       529 MEMB     4        POPC     H14Y     HAL2     0.900000E-01   1.00800           0
       530 MEMB     4        POPC     C315     CTL2    -0.180000       12.0110           0
       531 MEMB     4        POPC     H15X     HAL2     0.900000E-01   1.00800           0
       532 MEMB     4        POPC     H15Y     HAL2     0.900000E-01   1.00800           0
       533 MEMB     4        POPC     C316     CTL3    -0.270000       12.0110           0
       534 MEMB     4        POPC     H16X     HAL3     0.900000E-01   1.00800           0
       535 MEMB     4        POPC     H16Y     HAL3     0.900000E-01   1.00800           0
       536 MEMB     4        POPC     H16Z     HAL3     0.900000E-01   1.00800           0
       537 MEMB     5        POPC     N        NTL     -0.600000       14.0070           0
       538 MEMB     5        POPC     C12      CTL2    -0.100000       12.0110           0
       539 MEMB     5        POPC     H12A     HL       0.250000       1.00800           0
       540 MEMB     5        POPC     H12B     HL       0.250000       1.00800           0
       541 MEMB     5        POPC     C13      CTL5    -0.350000       12.0110           0
       542 MEMB     5        POPC     H13A     HL       0.250000       1.00800           0
       543 MEMB     5        POPC     H13B     HL       0.250000       1.00800           0
       544 MEMB     5        POPC     H13C     HL       0.250000       1.00800           0
       545 MEMB     5        POPC     C14      CTL5    -0.350000       12.0110           0
       546 MEMB     5        POPC     H14A     HL       0.250000       1.00800           0
       547 MEMB     5        POPC     H14B     HL       0.250000       1.00800           0
       548 MEMB     5        POPC     H14C     HL       0.250000       1.00800           0
       549 MEMB     5        POPC     C15      CTL5    -0.350000       12.0110           0
       550 MEMB     5        POPC     H15A     HL       0.250000       1.00800           0
       551 MEMB     5        POPC     H15B     HL       0.250000       1.00800           0
       552 MEMB     5        POPC     H15C     HL       0.250000       1.00800           0
       553 MEMB     5        POPC     C11      CTL2    -0.800000E-01   12.0110           0
       554 MEMB     5        POPC     H11A     HAL2     0.900000E-01   1.00800           0
       555 MEMB     5        POPC     H11B     HAL2     0.900000E-01   1.00800           0
       556 MEMB     5        POPC     P        PL        1.50000       30.9740           0
       557 MEMB     5        POPC     O13      O2L     -0.780000       15.9994           0
       558 MEMB     5        POPC     O14      O2L     -0.780000       15.9994           0
       559 MEMB     5        POPC     O12      OSLP    -0.570000       15.9994           0
       560 MEMB     5        POPC     O11      OSLP    -0.570000       15.9994           0
       561 MEMB     5        POPC     C1       CTL2    -0.800000E-01   12.0110           0
       562 MEMB     5        POPC     HA       HAL2     0.900000E-01   1.00800           0
       563 MEMB     5        POPC     HB       HAL2     0.900000E-01   1.00800           0
       564 MEMB     5        POPC     C2       CTL1     0.170000       12.0110           0
       565 MEMB     5        POPC     HS       HAL1     0.900000E-01   1.00800           0
       566 MEMB     5        POPC     O21      OSL     -0.490000       15.9994           0
       567 MEMB     5        POPC     C21      CL       0.900000       12.0110           0
       568 MEMB     5        POPC     O22      OBL     -0.630000       15.9994           0
       569 MEMB     5        POPC     C22      CTL2    -0.220000       12.0110           0
       570 MEMB     5        POPC     H2R      HAL2     0.900000E-01   1.00800           0
       571 MEMB     5        POPC     H2S      HAL2     0.900000E-01   1.00800           0
       572 MEMB     5        POPC     C3       CTL2     0.800000E-01   12.0110           0
       573 MEMB     5        POPC     HX       HAL2     0.900000E-01   1.00800           0
       574 MEMB     5        POPC     HY       HAL2     0.900000E-01   1.00800           0
       575 MEMB     5        POPC     O31      OSL     -0.490000       15.9994           0
       576 MEMB     5        POPC     C31      CL       0.900000       12.0110           0
       577 MEMB     5        POPC     O32      OBL     -0.630000       15.9994           0
       578 MEMB     5        POPC     C32      CTL2    -0.220000       12.0110           0
       579 MEMB     5        POPC     H2X      HAL2     0.900000E-01   1.00800           0
       580 MEMB     5        POPC     H2Y      HAL2     0.900000E-01   1.00800           0
       581 MEMB     5        POPC     C23      CTL2    -0.180000       12.0110           0
       582 MEMB     5        POPC     H3R      HAL2     0.900000E-01   1.00800           0
       583 MEMB     5        POPC     H3S      HAL2     0.900000E-01   1.00800           0
       584 MEMB     5        POPC     C24      CTL2    -0.180000       12.0110           0
       585 MEMB     5        POPC     H4R      HAL2     0.900000E-01   1.00800           0
       586 MEMB     5        POPC     H4S      HAL2     0.900000E-01   1.00800           0
       587 MEMB     5        POPC     C25      CTL2    -0.180000       12.0110           0
       588 MEMB     5        POPC     H5R      HAL2     0.900000E-01   1.00800           0
       589 MEMB     5        POPC     H5S      HAL2     0.900000E-01   1.00800           0
       590 MEMB     5        POPC     C26      CTL2    -0.180000       12.0110           0
       591 MEMB     5        POPC     H6R      HAL2     0.900000E-01   1.00800           0
       592 MEMB     5        POPC     H6S      HAL2     0.900000E-01   1.00800           0
       593 MEMB     5        POPC     C27      CTL2    -0.180000       12.0110           0
       594 MEMB     5        POPC     H7R      HAL2     0.900000E-01   1.00800           0
       595 MEMB     5        POPC     H7S      HAL2     0.900000E-01   1.00800           0
       596 MEMB     5        POPC     C28      CTL2    -0.180000       12.0110           0
       597 MEMB     5        POPC     H8R      HAL2     0.900000E-01   1.00800           0
       598 MEMB     5        POPC     H8S      HAL2     0.900000E-01   1.00800           0
       599 MEMB     5        POPC     C29      CEL1    -0.150000       12.0110           0
       600 MEMB     5        POPC     H91      HEL1     0.150000       1.00800           0
       601 MEMB     5        POPC     C210     CEL1    -0.150000       12.0110           0
       602 MEMB     5        POPC     H101     HEL1     0.150000       1.00800           0
       603 MEMB     5        POPC     C211     CTL2    -0.180000       12.0110           0
       604 MEMB     5        POPC     H11R     HAL2     0.900000E-01   1.00800           0
       605 MEMB     5        POPC     H11S     HAL2     0.900000E-01   1.00800           0
       606 MEMB     5        POPC     C212     CTL2    -0.180000       12.0110           0
       607 MEMB     5        POPC     H12R     HAL2     0.900000E-01   1.00800           0
       608 MEMB     5        POPC     H12S     HAL2     0.900000E-01   1.00800           0
       609 MEMB     5        POPC     C213     CTL2    -0.180000       12.0110           0
       610 MEMB     5        POPC     H13R     HAL2     0.900000E-01   1.00800           0
       611 MEMB     5        POPC     H13S     HAL2     0.900000E-01   1.00800           0
       612 MEMB     5        POPC     C214     CTL2    -0.180000       12.0110           0
       613 MEMB     5        POPC     H14R     HAL2     0.900000E-01   1.00800           0
       614 MEMB     5        POPC     H14S     HAL2     0.900000E-01   1.00800           0
       615 MEMB     5        POPC     C215     CTL2    -0.180000       12.0110           0
       616 MEMB     5        POPC     H15R     HAL2     0.900000E-01   1.00800           0
       617 MEMB     5        POPC     H15S     HAL2     0.900000E-01   1.00800           0
       618 MEMB     5        POPC     C216     CTL2    -0.180000       12.0110           0
       619 MEMB     5        POPC     H16R     HAL2     0.900000E-01   1.00800           0
       620 MEMB     5        POPC     H16S     HAL2     0.900000E-01   1.00800           0
       621 MEMB     5        POPC     C217     CTL2    -0.180000       12.0110           0
       622 MEMB     5        POPC     H17R     HAL2     0.900000E-01   1.00800           0
       623 MEMB     5        POPC     H17S     HAL2     0.900000E-01   1.00800           0
       624 MEMB     5        POPC     C218     CTL3    -0.270000       12.0110           0
       625 MEMB     5        POPC     H18R     HAL3     0.900000E-01   1.00800           0
       626 MEMB     5        POPC     H18S     HAL3     0.900000E-01   1.00800           0
       627 MEMB     5        POPC     H18T     HAL3     0.900000E-01   1.00800           0
       628 MEMB     5        POPC     C33      CTL2    -0.180000       12.0110           0
       629 MEMB     5        POPC     H3X      HAL2     0.900000E-01   1.00800           0
       630 MEMB     5        POPC     H3Y      HAL2     0.900000E-01   1.00800           0
       631 MEMB     5        POPC     C34      CTL2    -0.180000       12.0110           0
       632 MEMB     5        POPC     H4X      HAL2     0.900000E-01   1.00800           0
       633 MEMB     5        POPC     H4Y      HAL2     0.900000E-01   1.00800           0
       634 MEMB     5        POPC     C35      CTL2    -0.180000       12.0110           0
       635 MEMB     5        POPC     H5X      HAL2     0.900000E-01   1.00800           0
       636 MEMB     5        POPC     H5Y      HAL2     0.900000E-01   1.00800           0
       637 MEMB     5        POPC     C36      CTL2    -0.180000       12.0110           0
       638 MEMB     5        POPC     H6X      HAL2     0.900000E-01   1.00800           0
       639 MEMB     5        POPC     H6Y      HAL2     0.900000E-01   1.00800           0
       640 MEMB     5        POPC     C37      CTL2    -0.180000       12.0110           0
       641 MEMB     5        POPC     H7X      HAL2     0.900000E-01   1.00800           0
       642 MEMB     5        POPC     H7Y      HAL2     0.900000E-01   1.00800           0
       643 MEMB     5        POPC     C38      CTL2    -0.180000       12.0110           0
       644 MEMB     5        POPC     H8X      HAL2     0.900000E-01   1.00800           0
       645 MEMB     5        POPC     H8Y      HAL2     0.900000E-01   1.00800           0
       646 MEMB     5        POPC     C39      CTL2    -0.180000       12.0110           0
       647 MEMB     5        POPC     H9X      HAL2     0.900000E-01   1.00800           0
       648 MEMB     5        POPC     H9Y      HAL2     0.900000E-01   1.00800           0
       649 MEMB     5        POPC     C310     CTL2    -0.180000       12.0110           0
       650 MEMB     5        POPC     H10X     HAL2     0.900000E-01   1.00800           0
       651 MEMB     5        POPC     H10Y     HAL2     0.900000E-01   1.00800           0
       652 MEMB     5        POPC     C311     CTL2    -0.180000       12.0110           0
       653 MEMB     5        POPC     H11X     HAL2     0.900000E-01   1.00800           0
       654 MEMB     5        POPC     H11Y     HAL2     0.900000E-01   1.00800           0
       655 MEMB     5        POPC     C312     CTL2    -0.180000       12.0110           0
       656 MEMB     5        POPC     H12X     HAL2     0.900000E-01   1.00800           0
       657 MEMB     5        POPC     H12Y     HAL2     0.900000E-01   1.00800           0
       658 MEMB     5        POPC     C313     CTL2    -0.180000       12.0110           0
       659 MEMB     5        POPC     H13X     HAL2     0.900000E-01   1.00800           0
       660 MEMB     5        POPC     H13Y     HAL2     0.900000E-01   1.00800           0
       661 MEMB     5        POPC     C314     CTL2    -0.180000       12.0110           0
       662 MEMB     5        POPC     H14X     HAL2     0.900000E-01   1.00800           0
       663 MEMB     5        POPC     H14Y     HAL2     0.900000E-01   1.00800           0
       664 MEMB     5        POPC     C315     CTL2    -0.180000       12.0110           0
       665 MEMB     5        POPC     H15X     HAL2     0.900000E-01   1.00800           0
       666 MEMB     5        POPC     H15Y     HAL2     0.900000E-01   1.00800           0
       667 MEMB     5        POPC     C316     CTL3    -0.270000       12.0110           0
       668 MEMB     5        POPC     H16X     HAL3     0.900000E-01   1.00800           0
       669 MEMB     5        POPC     H16Y     HAL3     0.900000E-01   1.00800           0
       670 MEMB     5        POPC     H16Z     HAL3     0.900000E-01   1.00800           0
       671 MEMB     6        POPS     N        NH3L    -0.300000       14.0070           0
       672 MEMB     6        POPS     HN1      HCL      0.330000       1.00800           0
       673 MEMB     6        POPS     HN2      HCL      0.330000       1.00800           0
       674 MEMB     6        POPS     HN3      HCL      0.330000       1.00800           0
       675 MEMB     6        POPS     C12      CTL1     0.210000       12.0110           0
       676 MEMB     6        POPS     H12A     HBL      0.100000       1.00800           0
       677 MEMB     6        POPS     C13      CCL      0.340000       12.0110           0
       678 MEMB     6        POPS     O13A     OCL     -0.670000       15.9994           0
       679 MEMB     6        POPS     O13B     OCL     -0.670000       15.9994           0
       680 MEMB     6        POPS     C11      CTL2    -0.800000E-01   12.0110           0
       681 MEMB     6        POPS     H11A     HAL2     0.900000E-01   1.00800           0
       682 MEMB     6        POPS     H11B     HAL2     0.900000E-01   1.00800           0
       683 MEMB     6        POPS     P        PL        1.50000       30.9740           0
       684 MEMB     6        POPS     O13      O2L     -0.780000       15.9994           0
       685 MEMB     6        POPS     O14      O2L     -0.780000       15.9994           0
       686 MEMB     6        POPS     O12      OSLP    -0.570000       15.9994           0
       687 MEMB     6        POPS     O11      OSLP    -0.570000       15.9994           0
       688 MEMB     6        POPS     C1       CTL2    -0.800000E-01   12.0110           0
       689 MEMB     6        POPS     HA       HAL2     0.900000E-01   1.00800           0
       690 MEMB     6        POPS     HB       HAL2     0.900000E-01   1.00800           0
       691 MEMB     6        POPS     C2       CTL1     0.170000       12.0110           0
       692 MEMB     6        POPS     HS       HAL1     0.900000E-01   1.00800           0
       693 MEMB     6        POPS     O21      OSL     -0.490000       15.9994           0
       694 MEMB     6        POPS     C21      CL       0.900000       12.0110           0
       695 MEMB     6        POPS     O22      OBL     -0.630000       15.9994           0
       696 MEMB     6        POPS     C22      CTL2    -0.220000       12.0110           0
       697 MEMB     6        POPS     H2R      HAL2     0.900000E-01   1.00800           0
       698 MEMB     6        POPS     H2S      HAL2     0.900000E-01   1.00800           0
       699 MEMB     6        POPS     C3       CTL2     0.800000E-01   12.0110           0
       700 MEMB     6        POPS     HX       HAL2     0.900000E-01   1.00800           0
       701 MEMB     6        POPS     HY       HAL2     0.900000E-01   1.00800           0
       702 MEMB     6        POPS     O31      OSL     -0.490000       15.9994           0
       703 MEMB     6        POPS     C31      CL       0.900000       12.0110           0
       704 MEMB     6        POPS     O32      OBL     -0.630000       15.9994           0
       705 MEMB     6        POPS     C32      CTL2    -0.220000       12.0110           0
       706 MEMB     6        POPS     H2X      HAL2     0.900000E-01   1.00800           0
       707 MEMB     6        POPS     H2Y      HAL2     0.900000E-01   1.00800           0
       708 MEMB     6        POPS     C23      CTL2    -0.180000       12.0110           0
       709 MEMB     6        POPS     H3R      HAL2     0.900000E-01   1.00800           0
       710 MEMB     6        POPS     H3S      HAL2     0.900000E-01   1.00800           0
       711 MEMB     6        POPS     C24      CTL2    -0.180000       12.0110           0
       712 MEMB     6        POPS     H4R      HAL2     0.900000E-01   1.00800           0
       713 MEMB     6        POPS     H4S      HAL2     0.900000E-01   1.00800           0
       714 MEMB     6        POPS     C25      CTL2    -0.180000       12.0110           0
       715 MEMB     6        POPS     H5R      HAL2     0.900000E-01   1.00800           0
       716 MEMB     6        POPS     H5S      HAL2     0.900000E-01   1.00800           0
       717 MEMB     6        POPS     C26      CTL2    -0.180000       12.0110           0
       718 MEMB     6        POPS     H6R      HAL2     0.900000E-01   1.00800           0
       719 MEMB     6        POPS     H6S      HAL2     0.900000E-01   1.00800           0
       720 MEMB     6        POPS     C27      CTL2    -0.180000       12.0110           0
       721 MEMB     6        POPS     H7R      HAL2     0.900000E-01   1.00800           0
       722 MEMB     6        POPS     H7S      HAL2     0.900000E-01   1.00800           0
       723 MEMB     6        POPS     C28      CTL2    -0.180000       12.0110           0
       724 MEMB     6        POPS     H8R      HAL2     0.900000E-01   1.00800           0
       725 MEMB     6        POPS     H8S      HAL2     0.900000E-01   1.00800           0
       726 MEMB     6        POPS     C29      CEL1    -0.150000       12.0110           0
       727 MEMB     6        POPS     H91      HEL1     0.150000       1.00800           0
       728 MEMB     6        POPS     C210     CEL1    -0.150000       12.0110           0
       729 MEMB     6        POPS     H101     HEL1     0.150000       1.00800           0
       730 MEMB     6        POPS     C211     CTL2    -0.180000       12.0110           0
       731 MEMB     6        POPS     H11R     HAL2     0.900000E-01   1.00800           0
       732 MEMB     6        POPS     H11S     HAL2     0.900000E-01   1.00800           0
       733 MEMB     6        POPS     C212     CTL2    -0.180000       12.0110           0
       734 MEMB     6        POPS     H12R     HAL2     0.900000E-01   1.00800           0
       735 MEMB     6        POPS     H12S     HAL2     0.900000E-01   1.00800           0
       736 MEMB     6        POPS     C213     CTL2    -0.180000       12.0110           0
       737 MEMB     6        POPS     H13R     HAL2     0.900000E-01   1.00800           0
       738 MEMB     6        POPS     H13S     HAL2     0.900000E-01   1.00800           0
       739 MEMB     6        POPS     C214     CTL2    -0.180000       12.0110           0
       740 MEMB     6        POPS     H14R     HAL2     0.900000E-01   1.00800           0
       741 MEMB     6        POPS     H14S     HAL2     0.900000E-01   1.00800           0
       742 MEMB     6        POPS     C215     CTL2    -0.180000       12.0110           0
       743 MEMB     6        POPS     H15R     HAL2     0.900000E-01   1.00800           0
       744 MEMB     6        POPS     H15S     HAL2     0.900000E-01   1.00800           0
       745 MEMB     6        POPS     C216     CTL2    -0.180000       12.0110           0
       746 MEMB     6        POPS     H16R     HAL2     0.900000E-01   1.00800           0
       747 MEMB     6        POPS     H16S     HAL2     0.900000E-01   1.00800           0
       748 MEMB     6        POPS     C217     CTL2    -0.180000       12.0110           0
       749 MEMB     6        POPS     H17R     HAL2     0.900000E-01   1.00800           0
       750 MEMB     6        POPS     H17S     HAL2     0.900000E-01   1.00800           0
       751 MEMB     6        POPS     C218     CTL3    -0.270000       12.0110           0
       752 MEMB     6        POPS     H18R     HAL3     0.900000E-01   1.00800           0
       753 MEMB     6        POPS     H18S     HAL3     0.900000E-01   1.00800           0
       754 MEMB     6        POPS     H18T     HAL3     0.900000E-01   1.00800           0
       755 MEMB     6        POPS     C33      CTL2    -0.180000       12.0110           0
       756 MEMB     6        POPS     H3X      HAL2     0.900000E-01   1.00800           0
       757 MEMB     6        POPS     H3Y      HAL2     0.900000E-01   1.00800           0
       758 MEMB     6        POPS     C34      CTL2    -0.180000       12.0110           0
       759 MEMB     6        POPS     H4X      HAL2     0.900000E-01   1.00800           0
       760 MEMB     6        POPS     H4Y      HAL2     0.900000E-01   1.00800           0
       761 MEMB     6        POPS     C35      CTL2    -0.180000       12.0110           0
       762 MEMB     6        POPS     H5X      HAL2     0.900000E-01   1.00800           0
       763 MEMB     6        POPS     H5Y      HAL2     0.900000E-01   1.00800           0
       764 MEMB     6        POPS     C36      CTL2    -0.180000       12.0110           0
       765 MEMB     6        POPS     H6X      HAL2     0.900000E-01   1.00800           0
       766 MEMB     6        POPS     H6Y      HAL2     0.900000E-01   1.00800           0
       767 MEMB     6        POPS     C37      CTL2    -0.180000       12.0110           0
       768 MEMB     6        POPS     H7X      HAL2     0.900000E-01   1.00800           0
       769 MEMB     6        POPS     H7Y      HAL2     0.900000E-01   1.00800           0
       770 MEMB     6        POPS     C38      CTL2    -0.180000       12.0110           0
       771 MEMB     6        POPS     H8X      HAL2     0.900000E-01   1.00800           0
       772 MEMB     6        POPS     H8Y      HAL2     0.900000E-01   1.00800           0
       773 MEMB     6        POPS     C39      CTL2    -0.180000       12.0110           0
       774 MEMB     6        POPS     H9X      HAL2     0.900000E-01   1.00800           0
       775 MEMB     6        POPS     H9Y      HAL2     0.900000E-01   1.00800           0
       776 MEMB     6        POPS     C310     CTL2    -0.180000       12.0110           0
       777 MEMB     6        POPS     H10X     HAL2     0.900000E-01   1.00800           0
       778 MEMB     6        POPS     H10Y     HAL2     0.900000E-01   1.00800           0
       779 MEMB     6        POPS     C311     CTL2    -0.180000       12.0110           0
       780 MEMB     6        POPS     H11X     HAL2     0.900000E-01   1.00800           0
       781 MEMB     6        POPS     H11Y     HAL2     0.900000E-01   1.00800           0
       782 MEMB     6        POPS     C312     CTL2    -0.180000       12.0110           0
       783 MEMB     6        POPS     H12X     HAL2     0.900000E-01   1.00800           0
       784 MEMB     6        POPS     H12Y     HAL2     0.900000E-01   1.00800           0
       785 MEMB     6        POPS     C313     CTL2    -0.180000       12.0110           0
       786 MEMB     6        POPS     H13X     HAL2     0.900000E-01   1.00800           0
       787 MEMB     6        POPS     H13Y     HAL2     0.900000E-01   1.00800           0
       788 MEMB     6        POPS     C314     CTL2    -0.180000       12.0110           0
       789 MEMB     6        POPS     H14X     HAL2     0.900000E-01   1.00800           0
       790 MEMB     6        POPS     H14Y     HAL2     0.900000E-01   1.00800           0
       791 MEMB     6        POPS     C315     CTL2    -0.180000       12.0110           0
       792 MEMB     6        POPS     H15X     HAL2     0.900000E-01   1.00800           0
       793 MEMB     6        POPS     H15Y     HAL2     0.900000E-01   1.00800           0
       794 MEMB     6        POPS     C316     CTL3    -0.270000       12.0110           0
       795 MEMB     6        POPS     H16X     HAL3     0.900000E-01   1.00800           0
       796 MEMB     6        POPS     H16Y     HAL3     0.900000E-01   1.00800           0
       797 MEMB     6        POPS     H16Z     HAL3     0.900000E-01   1.00800           0
       798 MEMB     7        POPC     N        NTL     -0.600000       14.0070           0
       799 MEMB     7        POPC     C12      CTL2    -0.100000       12.0110           0
       800 MEMB     7        POPC     H12A     HL       0.250000       1.00800           0
       801 MEMB     7        POPC     H12B     HL       0.250000       1.00800           0
       802 MEMB     7        POPC     C13      CTL5    -0.350000       12.0110           0
       803 MEMB     7        POPC     H13A     HL       0.250000       1.00800           0
       804 MEMB     7        POPC     H13B     HL       0.250000       1.00800           0
       805 MEMB     7        POPC     H13C     HL       0.250000       1.00800           0
       806 MEMB     7        POPC     C14      CTL5    -0.350000       12.0110           0
       807 MEMB     7        POPC     H14A     HL       0.250000       1.00800           0
       808 MEMB     7        POPC     H14B     HL       0.250000       1.00800           0
       809 MEMB     7        POPC     H14C     HL       0.250000       1.00800           0
       810 MEMB     7        POPC     C15      CTL5    -0.350000       12.0110           0
       811 MEMB     7        POPC     H15A     HL       0.250000       1.00800           0
       812 MEMB     7        POPC     H15B     HL       0.250000       1.00800           0
       813 MEMB     7        POPC     H15C     HL       0.250000       1.00800           0
       814 MEMB     7        POPC     C11      CTL2    -0.800000E-01   12.0110           0
       815 MEMB     7        POPC     H11A     HAL2     0.900000E-01   1.00800           0
       816 MEMB     7        POPC     H11B     HAL2     0.900000E-01   1.00800           0
       817 MEMB     7        POPC     P        PL        1.50000       30.9740           0
       818 MEMB     7        POPC     O13      O2L     -0.780000       15.9994           0
       819 MEMB     7        POPC     O14      O2L     -0.780000       15.9994           0
       820 MEMB     7        POPC     O12      OSLP    -0.570000       15.9994           0
       821 MEMB     7        POPC     O11      OSLP    -0.570000       15.9994           0
       822 MEMB     7        POPC     C1       CTL2    -0.800000E-01   12.0110           0
       823 MEMB     7        POPC     HA       HAL2     0.900000E-01   1.00800           0
       824 MEMB     7        POPC     HB       HAL2     0.900000E-01   1.00800           0
       825 MEMB     7        POPC     C2       CTL1     0.170000       12.0110           0
       826 MEMB     7        POPC     HS       HAL1     0.900000E-01   1.00800           0
       827 MEMB     7        POPC     O21      OSL     -0.490000       15.9994           0
       828 MEMB     7        POPC     C21      CL       0.900000       12.0110           0
       829 MEMB     7        POPC     O22      OBL     -0.630000       15.9994           0
       830 MEMB     7        POPC     C22      CTL2    -0.220000       12.0110           0
       831 MEMB     7        POPC     H2R      HAL2     0.900000E-01   1.00800           0
       832 MEMB     7        POPC     H2S      HAL2     0.900000E-01   1.00800           0
       833 MEMB     7        POPC     C3       CTL2     0.800000E-01   12.0110           0
       834 MEMB     7        POPC     HX       HAL2     0.900000E-01   1.00800           0
       835 MEMB     7        POPC     HY       HAL2     0.900000E-01   1.00800           0
       836 MEMB     7        POPC     O31      OSL     -0.490000       15.9994           0
       837 MEMB     7        POPC     C31      CL       0.900000       12.0110           0
       838 MEMB     7        POPC     O32      OBL     -0.630000       15.9994           0
       839 MEMB     7        POPC     C32      CTL2    -0.220000       12.0110           0
       840 MEMB     7        POPC     H2X      HAL2     0.900000E-01   1.00800           0
       841 MEMB     7        POPC     H2Y      HAL2     0.900000E-01   1.00800           0
       842 MEMB     7        POPC     C23      CTL2    -0.180000       12.0110           0
       843 MEMB     7        POPC     H3R      HAL2     0.900000E-01   1.00800           0
       844 MEMB     7        POPC     H3S      HAL2     0.900000E-01   1.00800           0
       845 MEMB     7        POPC     C24      CTL2    -0.180000       12.0110           0
       846 MEMB     7        POPC     H4R      HAL2     0.900000E-01   1.00800           0
       847 MEMB     7        POPC     H4S      HAL2     0.900000E-01   1.00800           0
       848 MEMB     7        POPC     C25      CTL2    -0.180000       12.0110           0
       849 MEMB     7        POPC     H5R      HAL2     0.900000E-01   1.00800           0
       850 MEMB     7        POPC     H5S      HAL2     0.900000E-01   1.00800           0
       851 MEMB     7        POPC     C26      CTL2    -0.180000       12.0110           0
       852 MEMB     7        POPC     H6R      HAL2     0.900000E-01   1.00800           0
       853 MEMB     7        POPC     H6S      HAL2     0.900000E-01   1.00800           0
       854 MEMB     7        POPC     C27      CTL2    -0.180000       12.0110           0
       855 MEMB     7        POPC     H7R      HAL2     0.900000E-01   1.00800           0
       856 MEMB     7        POPC     H7S      HAL2     0.900000E-01   1.00800           0
       857 MEMB     7        POPC     C28      CTL2    -0.180000       12.0110           0
       858 MEMB     7        POPC     H8R      HAL2     0.900000E-01   1.00800           0
       859 MEMB     7        POPC     H8S      HAL2     0.900000E-01   1.00800           0
       860 MEMB     7        POPC     C29      CEL1    -0.150000       12.0110           0
       861 MEMB     7        POPC     H91      HEL1     0.150000       1.00800           0
       862 MEMB     7        POPC     C210     CEL1    -0.150000       12.0110           0
       863 MEMB     7        POPC     H101     HEL1     0.150000       1.00800           0
       864 MEMB     7        POPC     C211     CTL2    -0.180000       12.0110           0
       865 MEMB     7        POPC     H11R     HAL2     0.900000E-01   1.00800           0
       866 MEMB     7        POPC     H11S     HAL2     0.900000E-01   1.00800           0
       867 MEMB     7        POPC     C212     CTL2    -0.180000       12.0110           0
       868 MEMB     7        POPC     H12R     HAL2     0.900000E-01   1.00800           0
       869 MEMB     7        POPC     H12S     HAL2     0.900000E-01   1.00800           0
       870 MEMB     7        POPC     C213     CTL2    -0.180000       12.0110           0
       871 MEMB     7        POPC     H13R     HAL2     0.900000E-01   1.00800           0
       872 MEMB     7        POPC     H13S     HAL2     0.900000E-01   1.00800           0
       873 MEMB     7        POPC     C214     CTL2    -0.180000       12.0110           0
       874 MEMB     7        POPC     H14R     HAL2     0.900000E-01   1.00800           0
       875 MEMB     7        POPC     H14S     HAL2     0.900000E-01   1.00800           0
       876 MEMB     7        POPC     C215     CTL2    -0.180000       12.0110           0
       877 MEMB     7        POPC     H15R     HAL2     0.900000E-01   1.00800           0
       878 MEMB     7        POPC     H15S     HAL2     0.900000E-01   1.00800           0
       879 MEMB     7        POPC     C216     CTL2    -0.180000       12.0110           0
       880 MEMB     7        POPC     H16R     HAL2     0.900000E-01   1.00800           0
       881 MEMB     7        POPC     H16S     HAL2     0.900000E-01   1.00800           0
       882 MEMB     7        POPC     C217     CTL2    -0.180000       12.0110           0
       883 MEMB     7        POPC     H17R     HAL2     0.900000E-01   1.00800           0
       884 MEMB     7        POPC     H17S     HAL2     0.900000E-01   1.00800           0
       885 MEMB     7        POPC     C218     CTL3    -0.270000       12.0110           0
       886 MEMB     7        POPC     H18R     HAL3     0.900000E-01   1.00800           0
       887 MEMB     7        POPC     H18S     HAL3     0.900000E-01   1.00800           0
       888 MEMB     7        POPC     H18T     HAL3     0.900000E-01   1.00800           0
       889 MEMB     7        POPC     C33      CTL2    -0.180000       12.0110           0
       890 MEMB     7        POPC     H3X      HAL2     0.900000E-01   1.00800           0
       891 MEMB     7        POPC     H3Y      HAL2     0.900000E-01   1.00800           0
       892 MEMB     7        POPC     C34      CTL2    -0.180000       12.0110           0
       893 MEMB     7        POPC     H4X      HAL2     0.900000E-01   1.00800           0
       894 MEMB     7        POPC     H4Y      HAL2     0.900000E-01   1.00800           0
       895 MEMB     7        POPC     C35      CTL2    -0.180000       12.0110           0
       896 MEMB     7        POPC     H5X      HAL2     0.900000E-01   1.00800           0
       897 MEMB     7        POPC     H5Y      HAL2     0.900000E-01   1.00800           0
       898 MEMB     7        POPC     C36      CTL2    -0.180000       12.0110           0
       899 MEMB     7        POPC     H6X      HAL2     0.900000E-01   1.00800           0
       900 MEMB     7        POPC     H6Y      HAL2     0.900000E-01   1.00800           0
       901 MEMB     7        POPC     C37      CTL2    -0.180000       12.0110           0
       902 MEMB     7        POPC     H7X      HAL2     0.900000E-01   1.00800           0
       903 MEMB     7        POPC     H7Y      HAL2     0.900000E-01   1.00800           0
       904 MEMB     7        POPC     C38      CTL2    -0.180000       12.0110           0
       905 MEMB     7        POPC     H8X      HAL2     0.900000E-01   1.00800           0
       906 MEMB     7        POPC     H8Y      HAL2     0.900000E-01   1.00800           0
       907 MEMB     7        POPC     C39      CTL2    -0.180000       12.0110           0
       908 MEMB     7        POPC     H9X      HAL2     0.900000E-01   1.00800           0
       909 MEMB     7        POPC     H9Y      HAL2     0.900000E-01   1.00800           0
       910 MEMB     7        POPC     C310     CTL2    -0.180000       12.0110           0
       911 MEMB     7        POPC     H10X     HAL2     0.900000E-01   1.00800           0
       912 MEMB     7        POPC     H10Y     HAL2     0.900000E-01   1.00800           0
       913 MEMB     7        POPC     C311     CTL2    -0.180000       12.0110           0
       914 MEMB     7        POPC     H11X     HAL2     0.900000E-01   1.00800           0
       915 MEMB     7        POPC     H11Y     HAL2     0.900000E-01   1.00800           0
       916 MEMB     7        POPC     C312     CTL2    -0.180000       12.0110           0
       917 MEMB     7        POPC     H12X     HAL2     0.900000E-01   1.00800           0
       918 MEMB     7        POPC     H12Y     HAL2     0.900000E-01   1.00800           0
       919 MEMB     7        POPC     C313     CTL2    -0.180000       12.0110           0
       920 MEMB     7        POPC     H13X     HAL2     0.900000E-01   1.00800           0
       921 MEMB     7        POPC     H13Y     HAL2     0.900000E-01   1.00800           0
       922 MEMB     7        POPC     C314     CTL2    -0.180000       12.0110           0
       923 MEMB     7        POPC     H14X     HAL2     0.900000E-01   1.00800           0
       924 MEMB     7        POPC     H14Y     HAL2     0.900000E-01   1.00800           0
       925 MEMB     7        POPC     C315     CTL2    -0.180000       12.0110           0
       926 MEMB     7        POPC     H15X     HAL2     0.900000E-01   1.00800           0
       927 MEMB     7        POPC     H15Y     HAL2     0.900000E-01   1.00800           0
       928 MEMB     7        POPC     C316     CTL3    -0.270000       12.0110           0
       929 MEMB     7        POPC     H16X     HAL3     0.900000E-01   1.00800           0
       930 MEMB     7        POPC     H16Y     HAL3     0.900000E-01   1.00800           0
       931 MEMB     7        POPC     H16Z     HAL3     0.900000E-01   1.00800           0
       932 MEMB     8        POPC     N        NTL     -0.600000       14.0070           0
       933 MEMB     8        POPC     C12      CTL2    -0.100000       12.0110           0
       934 MEMB     8        POPC     H12A     HL       0.250000       1.00800           0
       935 MEMB     8        POPC     H12B     HL       0.250000       1.00800           0
       936 MEMB     8        POPC     C13      CTL5    -0.350000       12.0110           0
       937 MEMB     8        POPC     H13A     HL       0.250000       1.00800           0
       938 MEMB     8        POPC     H13B     HL       0.250000       1.00800           0
       939 MEMB     8        POPC     H13C     HL       0.250000       1.00800           0
       940 MEMB     8        POPC     C14      CTL5    -0.350000       12.0110           0
       941 MEMB     8        POPC     H14A     HL       0.250000       1.00800           0
       942 MEMB     8        POPC     H14B     HL       0.250000       1.00800           0
       943 MEMB     8        POPC     H14C     HL       0.250000       1.00800           0
       944 MEMB     8        POPC     C15      CTL5    -0.350000       12.0110           0
       945 MEMB     8        POPC     H15A     HL       0.250000       1.00800           0
       946 MEMB     8        POPC     H15B     HL       0.250000       1.00800           0
       947 MEMB     8        POPC     H15C     HL       0.250000       1.00800           0
       948 MEMB     8        POPC     C11      CTL2    -0.800000E-01   12.0110           0
       949 MEMB     8        POPC     H11A     HAL2     0.900000E-01   1.00800           0
       950 MEMB     8        POPC     H11B     HAL2     0.900000E-01   1.00800           0
       951 MEMB     8        POPC     P        PL        1.50000       30.9740           0
       952 MEMB     8        POPC     O13      O2L     -0.780000       15.9994           0
       953 MEMB     8        POPC     O14      O2L     -0.780000       15.9994           0
       954 MEMB     8        POPC     O12      OSLP    -0.570000       15.9994           0
       955 MEMB     8        POPC     O11      OSLP    -0.570000       15.9994           0
       956 MEMB     8        POPC     C1       CTL2    -0.800000E-01   12.0110           0
       957 MEMB     8        POPC     HA       HAL2     0.900000E-01   1.00800           0
       958 MEMB     8        POPC     HB       HAL2     0.900000E-01   1.00800           0
       959 MEMB     8        POPC     C2       CTL1     0.170000       12.0110           0
       960 MEMB     8        POPC     HS       HAL1     0.900000E-01   1.00800           0
       961 MEMB     8        POPC     O21      OSL     -0.490000       15.9994           0
       962 MEMB     8        POPC     C21      CL       0.900000       12.0110           0
       963 MEMB     8        POPC     O22      OBL     -0.630000       15.9994           0
       964 MEMB     8        POPC     C22      CTL2    -0.220000       12.0110           0
       965 MEMB     8        POPC     H2R      HAL2     0.900000E-01   1.00800           0
       966 MEMB     8        POPC     H2S      HAL2     0.900000E-01   1.00800           0
       967 MEMB     8        POPC     C3       CTL2     0.800000E-01   12.0110           0
       968 MEMB     8        POPC     HX       HAL2     0.900000E-01   1.00800           0
       969 MEMB     8        POPC     HY       HAL2     0.900000E-01   1.00800           0
       970 MEMB     8        POPC     O31      OSL     -0.490000       15.9994           0
       971 MEMB     8        POPC     C31      CL       0.900000       12.0110           0
       972 MEMB     8        POPC     O32      OBL     -0.630000       15.9994           0
       973 MEMB     8        POPC     C32      CTL2    -0.220000       12.0110           0
       974 MEMB     8        POPC     H2X      HAL2     0.900000E-01   1.00800           0
       975 MEMB     8        POPC     H2Y      HAL2     0.900000E-01   1.00800           0
       976 MEMB     8        POPC     C23      CTL2    -0.180000       12.0110           0
       977 MEMB     8        POPC     H3R      HAL2     0.900000E-01   1.00800           0
       978 MEMB     8        POPC     H3S      HAL2     0.900000E-01   1.00800           0
       979 MEMB     8        POPC     C24      CTL2    -0.180000       12.0110           0
       980 MEMB     8        POPC     H4R      HAL2     0.900000E-01   1.00800           0
       981 MEMB     8        POPC     H4S      HAL2     0.900000E-01   1.00800           0
       982 MEMB     8        POPC     C25      CTL2    -0.180000       12.0110           0
       983 MEMB     8        POPC     H5R      HAL2     0.900000E-01   1.00800           0
       984 MEMB     8        POPC     H5S      HAL2     0.900000E-01   1.00800           0
       985 MEMB     8        POPC     C26      CTL2    -0.180000       12.0110           0
       986 MEMB     8        POPC     H6R      HAL2     0.900000E-01   1.00800           0
       987 MEMB     8        POPC     H6S      HAL2     0.900000E-01   1.00800           0
       988 MEMB     8        POPC     C27      CTL2    -0.180000       12.0110           0
       989 MEMB     8        POPC     H7R      HAL2     0.900000E-01   1.00800           0
       990 MEMB     8        POPC     H7S      HAL2     0.900000E-01   1.00800           0
       991 MEMB     8        POPC     C28      CTL2    -0.180000       12.0110           0
       992 MEMB     8        POPC     H8R      HAL2     0.900000E-01   1.00800           0
       993 MEMB     8        POPC     H8S      HAL2     0.900000E-01   1.00800           0
       994 MEMB     8        POPC     C29      CEL1    -0.150000       12.0110           0
       995 MEMB     8        POPC     H91      HEL1     0.150000       1.00800           0
       996 MEMB     8        POPC     C210     CEL1    -0.150000       12.0110           0
       997 MEMB     8        POPC     H101     HEL1     0.150000       1.00800           0
       998 MEMB     8        POPC     C211     CTL2    -0.180000       12.0110           0
       999 MEMB     8        POPC     H11R     HAL2     0.900000E-01   1.00800           0
      1000 MEMB     8        POPC     H11S     HAL2     0.900000E-01   1.00800           0
      1001 MEMB     8        POPC     C212     CTL2    -0.180000       12.0110           0
      1002 MEMB     8        POPC     H12R     HAL2     0.900000E-01   1.00800           0
      1003 MEMB     8        POPC     H12S     HAL2     0.900000E-01   1.00800           0
      1004 MEMB     8        POPC     C213     CTL2    -0.180000       12.0110           0
      1005 MEMB     8        POPC     H13R     HAL2     0.900000E-01   1.00800           0
      1006 MEMB     8        POPC     H13S     HAL2     0.900000E-01   1.00800           0
      1007 MEMB     8        POPC     C214     CTL2    -0.180000       12.0110           0
      1008 MEMB     8        POPC     H14R     HAL2     0.900000E-01   1.00800           0
      1009 MEMB     8        POPC     H14S     HAL2     0.900000E-01   1.00800           0
      1010 MEMB     8        POPC     C215     CTL2    -0.180000       12.0110           0
      1011 MEMB     8        POPC     H15R     HAL2     0.900000E-01   1.00800           0
      1012 MEMB     8        POPC     H15S     HAL2     0.900000E-01   1.00800           0
      1013 MEMB     8        POPC     C216     CTL2    -0.180000       12.0110           0
      1014 MEMB     8        POPC     H16R     HAL2     0.900000E-01   1.00800           0
      1015 MEMB     8        POPC     H16S     HAL2     0.900000E-01   1.00800           0
      1016 MEMB     8        POPC     C217     CTL2    -0.180000       12.0110           0
      1017 MEMB     8        POPC     H17R     HAL2     0.900000E-01   1.00800           0
      1018 MEMB     8        POPC     H17S     HAL2     0.900000E-01   1.00800           0
      1019 MEMB     8        POPC     C218     CTL3    -0.270000       12.0110           0
      1020 MEMB     8        POPC     H18R     HAL3     0.900000E-01   1.00800           0
      1021 MEMB     8        POPC     H18S     HAL3     0.900000E-01   1.00800           0
      1022 MEMB     8        POPC     H18T     HAL3     0.900000E-01   1.00800           0
      1023 MEMB     8        POPC     C33      CTL2    -0.180000       12.0110           0
      1024 MEMB     8        POPC     H3X      HAL2     0.900000E-01   1.00800           0
      1025 MEMB     8        POPC     H3Y      HAL2     0.900000E-01   1.00800           0
      1026 MEMB     8        POPC     C34      CTL2    -0.180000       12.0110           0
      1027 MEMB     8        POPC     H4X      HAL2     0.900000E-01   1.00800           0
      1028 MEMB     8        POPC     H4Y      HAL2     0.900000E-01   1.00800           0
      1029 MEMB     8        POPC     C35      CTL2    -0.180000       12.0110           0
      1030 MEMB     8        POPC     H5X      HAL2     0.900000E-01   1.00800           0
      1031 MEMB     8        POPC     H5Y      HAL2     0.900000E-01   1.00800           0
      1032 MEMB     8        POPC     C36      CTL2    -0.180000       12.0110           0
      1033 MEMB     8        POPC     H6X      HAL2     0.900000E-01   1.00800           0
      1034 MEMB     8        POPC     H6Y      HAL2     0.900000E-01   1.00800           0
      1035 MEMB     8        POPC     C37      CTL2    -0.180000       12.0110           0
      1036 MEMB     8        POPC     H7X      HAL2     0.900000E-01   1.00800           0
      1037 MEMB     8        POPC     H7Y      HAL2     0.900000E-01   1.00800           0
      1038 MEMB     8        POPC     C38      CTL2    -0.180000       12.0110           0
      1039 MEMB     8        POPC     H8X      HAL2     0.900000E-01   1.00800           0
      1040 MEMB     8        POPC     H8Y      HAL2     0.900000E-01   1.00800           0
      1041 MEMB     8        POPC     C39      CTL2    -0.180000       12.0110           0
      1042 MEMB     8        POPC     H9X      HAL2     0.900000E-01   1.00800           0
      1043 MEMB     8        POPC     H9Y      HAL2     0.900000E-01   1.00800           0
      1044 MEMB     8        POPC     C310     CTL2    -0.180000       12.0110           0
      1045 MEMB     8        POPC     H10X     HAL2     0.900000E-01   1.00800           0
      1046 MEMB     8        POPC     H10Y     HAL2     0.900000E-01   1.00800           0
      1047 MEMB     8        POPC     C311     CTL2    -0.180000       12.0110           0
      1048 MEMB     8        POPC     H11X     HAL2     0.900000E-01   1.00800           0
      1049 MEMB     8        POPC     H11Y     HAL2     0.900000E-01   1.00800           0
      1050 MEMB     8        POPC     C312     CTL2    -0.180000       12.0110           0
      1051 MEMB     8        POPC     H12X     HAL2     0.900000E-01   1.00800           0
      1052 MEMB     8        POPC     H12Y     HAL2     0.900000E-01   1.00800           0
      1053 MEMB     8        POPC     C313     CTL2    -0.180000       12.0110           0
      1054 MEMB     8        POPC     H13X     HAL2     0.900000E-01   1.00800           0
      1055 MEMB     8        POPC     H13Y     HAL2     0.900000E-01   1.00800           0
      1056 MEMB     8        POPC     C314     CTL2    -0.180000       12.0110           0
      1057 MEMB     8        POPC     H14X     HAL2     0.900000E-01   1.00800           0
      1058 MEMB     8        POPC     H14Y     HAL2     0.900000E-01   1.00800           0
      1059 MEMB     8        POPC     C315     CTL2    -0.180000       12.0110           0
      1060 MEMB     8        POPC     H15X     HAL2     0.900000E-01   1.00800           0
      1061 MEMB     8        POPC     H15Y     HAL2     0.900000E-01   1.00800           0
      1062 MEMB     8        POPC     C316     CTL3    -0.270000       12.0110           0
      1063 MEMB     8        POPC     H16X     HAL3     0.900000E-01   1.00800           0
      1064 MEMB     8        POPC     H16Y     HAL3     0.900000E-01   1.00800           0
      1065 MEMB     8        POPC     H16Z     HAL3     0.900000E-01   1.00800           0
      1066 MEMB     9        POPS     N        NH3L    -0.300000       14.0070           0
      1067 MEMB     9        POPS     HN1      HCL      0.330000       1.00800           0
      1068 MEMB     9        POPS     HN2      HCL      0.330000       1.00800           0
      1069 MEMB     9        POPS     HN3      HCL      0.330000       1.00800           0
      1070 MEMB     9        POPS     C12      CTL1     0.210000       12.0110           0
      1071 MEMB     9        POPS     H12A     HBL      0.100000       1.00800           0
      1072 MEMB     9        POPS     C13      CCL      0.340000       12.0110           0
      1073 MEMB     9        POPS     O13A     OCL     -0.670000       15.9994           0
      1074 MEMB     9        POPS     O13B     OCL     -0.670000       15.9994           0
      1075 MEMB     9        POPS     C11      CTL2    -0.800000E-01   12.0110           0
      1076 MEMB     9        POPS     H11A     HAL2     0.900000E-01   1.00800           0
      1077 MEMB     9        POPS     H11B     HAL2     0.900000E-01   1.00800           0
      1078 MEMB     9        POPS     P        PL        1.50000       30.9740           0
      1079 MEMB     9        POPS     O13      O2L     -0.780000       15.9994           0
      1080 MEMB     9        POPS     O14      O2L     -0.780000       15.9994           0
      1081 MEMB     9        POPS     O12      OSLP    -0.570000       15.9994           0
      1082 MEMB     9        POPS     O11      OSLP    -0.570000       15.9994           0
      1083 MEMB     9        POPS     C1       CTL2    -0.800000E-01   12.0110           0
      1084 MEMB     9        POPS     HA       HAL2     0.900000E-01   1.00800           0
      1085 MEMB     9        POPS     HB       HAL2     0.900000E-01   1.00800           0
      1086 MEMB     9        POPS     C2       CTL1     0.170000       12.0110           0
      1087 MEMB     9        POPS     HS       HAL1     0.900000E-01   1.00800           0
      1088 MEMB     9        POPS     O21      OSL     -0.490000       15.9994           0
      1089 MEMB     9        POPS     C21      CL       0.900000       12.0110           0
      1090 MEMB     9        POPS     O22      OBL     -0.630000       15.9994           0
      1091 MEMB     9        POPS     C22      CTL2    -0.220000       12.0110           0
      1092 MEMB     9        POPS     H2R      HAL2     0.900000E-01   1.00800           0
      1093 MEMB     9        POPS     H2S      HAL2     0.900000E-01   1.00800           0
      1094 MEMB     9        POPS     C3       CTL2     0.800000E-01   12.0110           0
      1095 MEMB     9        POPS     HX       HAL2     0.900000E-01   1.00800           0
      1096 MEMB     9        POPS     HY       HAL2     0.900000E-01   1.00800           0
      1097 MEMB     9        POPS     O31      OSL     -0.490000       15.9994           0
      1098 MEMB     9        POPS     C31      CL       0.900000       12.0110           0
      1099 MEMB     9        POPS     O32      OBL     -0.630000       15.9994           0
      1100 MEMB     9        POPS     C32      CTL2    -0.220000       12.0110           0
      1101 MEMB     9        POPS     H2X      HAL2     0.900000E-01   1.00800           0
      1102 MEMB     9        POPS     H2Y      HAL2     0.900000E-01   1.00800           0
      1103 MEMB     9        POPS     C23      CTL2    -0.180000       12.0110           0
      1104 MEMB     9        POPS     H3R      HAL2     0.900000E-01   1.00800           0
      1105 MEMB     9        POPS     H3S      HAL2     0.900000E-01   1.00800           0
      1106 MEMB     9        POPS     C24      CTL2    -0.180000       12.0110           0
      1107 MEMB     9        POPS     H4R      HAL2     0.900000E-01   1.00800           0
      1108 MEMB     9        POPS     H4S      HAL2     0.900000E-01   1.00800           0
      1109 MEMB     9        POPS     C25      CTL2    -0.180000       12.0110           0
      1110 MEMB     9        POPS     H5R      HAL2     0.900000E-01   1.00800           0
      1111 MEMB     9        POPS     H5S      HAL2     0.900000E-01   1.00800           0
      1112 MEMB     9        POPS     C26      CTL2    -0.180000       12.0110           0
      1113 MEMB     9        POPS     H6R      HAL2     0.900000E-01   1.00800           0
      1114 MEMB     9        POPS     H6S      HAL2     0.900000E-01   1.00800           0
      1115 MEMB     9        POPS     C27      CTL2    -0.180000       12.0110           0
      1116 MEMB     9        POPS     H7R      HAL2     0.900000E-01   1.00800           0
      1117 MEMB     9        POPS     H7S      HAL2     0.900000E-01   1.00800           0
      1118 MEMB     9        POPS     C28      CTL2    -0.180000       12.0110           0
      1119 MEMB     9        POPS     H8R      HAL2     0.900000E-01   1.00800           0
      1120 MEMB     9        POPS     H8S      HAL2     0.900000E-01   1.00800           0
      1121 MEMB     9        POPS     C29      CEL1    -0.150000       12.0110           0
      1122 MEMB     9        POPS     H91      HEL1     0.150000       1.00800           0
      1123 MEMB     9        POPS     C210     CEL1    -0.150000       12.0110           0
      1124 MEMB     9        POPS     H101     HEL1     0.150000       1.00800           0
      1125 MEMB     9        POPS     C211     CTL2    -0.180000       12.0110           0
      1126 MEMB     9        POPS     H11R     HAL2     0.900000E-01   1.00800           0
      1127 MEMB     9        POPS     H11S     HAL2     0.900000E-01   1.00800           0
      1128 MEMB     9        POPS     C212     CTL2    -0.180000       12.0110           0
      1129 MEMB     9        POPS     H12R     HAL2     0.900000E-01   1.00800           0
      1130 MEMB     9        POPS     H12S     HAL2     0.900000E-01   1.00800           0
      1131 MEMB     9        POPS     C213     CTL2    -0.180000       12.0110           0
      1132 MEMB     9        POPS     H13R     HAL2     0.900000E-01   1.00800           0
      1133 MEMB     9        POPS     H13S     HAL2     0.900000E-01   1.00800           0
      1134 MEMB     9        POPS     C214     CTL2    -0.180000       12.0110           0
      1135 MEMB     9        POPS     H14R     HAL2     0.900000E-01   1.00800           0
      1136 MEMB     9        POPS     H14S     HAL2     0.900000E-01   1.00800           0
      1137 MEMB     9        POPS     C215     CTL2    -0.180000       12.0110           0
      1138 MEMB     9        POPS     H15R     HAL2     0.900000E-01   1.00800           0
      1139 MEMB     9        POPS     H15S     HAL2     0.900000E-01   1.00800           0
      1140 MEMB     9        POPS     C216     CTL2    -0.180000       12.0110           0
      1141 MEMB     9        POPS     H16R     HAL2     0.900000E-01   1.00800           0
      1142 MEMB     9        POPS     H16S     HAL2     0.900000E-01   1.00800           0
      1143 MEMB     9        POPS     C217     CTL2    -0.180000       12.0110           0
      1144 MEMB     9        POPS     H17R     HAL2     0.900000E-01   1.00800           0
      1145 MEMB     9        POPS     H17S     HAL2     0.900000E-01   1.00800           0
      1146 MEMB     9        POPS     C218     CTL3    -0.270000       12.0110           0
      1147 MEMB     9        POPS     H18R     HAL3     0.900000E-01   1.00800           0
      1148 MEMB     9        POPS     H18S     HAL3     0.900000E-01   1.00800           0
      1149 MEMB     9        POPS     H18T     HAL3     0.900000E-01   1.00800           0
      1150 MEMB     9        POPS     C33      CTL2    -0.180000       12.0110           0
      1151 MEMB     9        POPS     H3X      HAL2     0.900000E-01   1.00800           0
      1152 MEMB     9        POPS     H3Y      HAL2     0.900000E-01   1.00800           0
      1153 MEMB     9        POPS     C34      CTL2    -0.180000       12.0110           0
      1154 MEMB     9        POPS     H4X      HAL2     0.900000E-01   1.00800           0
      1155 MEMB     9        POPS     H4Y      HAL2     0.900000E-01   1.00800           0
      1156 MEMB     9        POPS     C35      CTL2    -0.180000       12.0110           0
      1157 MEMB     9        POPS     H5X      HAL2     0.900000E-01   1.00800           0
      1158 MEMB     9        POPS     H5Y      HAL2     0.900000E-01   1.00800           0
      1159 MEMB     9        POPS     C36      CTL2    -0.180000       12.0110           0
      1160 MEMB     9        POPS     H6X      HAL2     0.900000E-01   1.00800           0
      1161 MEMB     9        POPS     H6Y      HAL2     0.900000E-01   1.00800           0
      1162 MEMB     9        POPS     C37      CTL2    -0.180000       12.0110           0
      1163 MEMB     9        POPS     H7X      HAL2     0.900000E-01   1.00800           0
      1164 MEMB     9        POPS     H7Y      HAL2     0.900000E-01   1.00800           0
      1165 MEMB     9        POPS     C38      CTL2    -0.180000       12.0110           0
      1166 MEMB     9        POPS     H8X      HAL2     0.900000E-01   1.00800           0
      1167 MEMB     9        POPS     H8Y      HAL2     0.900000E-01   1.00800           0
      1168 MEMB     9        POPS     C39      CTL2    -0.180000       12.0110           0
      1169 MEMB     9        POPS     H9X      HAL2     0.900000E-01   1.00800           0
      1170 MEMB     9        POPS     H9Y      HAL2     0.900000E-01   1.00800           0
      1171 MEMB     9        POPS     C310     CTL2    -0.180000       12.0110           0
      1172 MEMB     9        POPS     H10X     HAL2     0.900000E-01   1.00800           0
      1173 MEMB     9        POPS     H10Y     HAL2     0.900000E-01   1.00800           0
      1174 MEMB     9        POPS     C311     CTL2    -0.180000       12.0110           0
      1175 MEMB     9        POPS     H11X     HAL2     0.900000E-01   1.00800           0
      1176 MEMB     9        POPS     H11Y     HAL2     0.900000E-01   1.00800           0
      1177 MEMB     9        POPS     C312     CTL2    -0.180000       12.0110           0
      1178 MEMB     9        POPS     H12X     HAL2     0.900000E-01   1.00800           0
      1179 MEMB     9        POPS     H12Y     HAL2     0.900000E-01   1.00800           0
      1180 MEMB     9        POPS     C313     CTL2    -0.180000       12.0110           0
      1181 MEMB     9        POPS     H13X     HAL2     0.900000E-01   1.00800           0
      1182 MEMB     9        POPS     H13Y     HAL2     0.900000E-01   1.00800           0
      1183 MEMB     9        POPS     C314     CTL2    -0.180000       12.0110           0
      1184 MEMB     9        POPS     H14X     HAL2     0.900000E-01   1.00800           0
      1185 MEMB     9        POPS     H14Y     HAL2     0.900000E-01   1.00800           0
      1186 MEMB     9        POPS     C315     CTL2    -0.180000       12.0110           0
      1187 MEMB     9        POPS     H15X     HAL2     0.900000E-01   1.00800           0
      1188 MEMB     9        POPS     H15Y     HAL2     0.900000E-01   1.00800           0
      1189 MEMB     9        POPS     C316     CTL3    -0.270000       12.0110           0
      1190 MEMB     9        POPS     H16X     HAL3     0.900000E-01   1.00800           0
      1191 MEMB     9        POPS     H16Y     HAL3     0.900000E-01   1.00800           0
      1192 MEMB     9        POPS     H16Z     HAL3     0.900000E-01   1.00800           0
      1193 MEMB     10       POPC     N        NTL     -0.600000       14.0070           0
      1194 MEMB     10       POPC     C12      CTL2    -0.100000       12.0110           0
      1195 MEMB     10       POPC     H12A     HL       0.250000       1.00800           0
      1196 MEMB     10       POPC     H12B     HL       0.250000       1.00800           0
      1197 MEMB     10       POPC     C13      CTL5    -0.350000       12.0110           0
      1198 MEMB     10       POPC     H13A     HL       0.250000       1.00800           0
      1199 MEMB     10       POPC     H13B     HL       0.250000       1.00800           0
      1200 MEMB     10       POPC     H13C     HL       0.250000       1.00800           0
      1201 MEMB     10       POPC     C14      CTL5    -0.350000       12.0110           0
      1202 MEMB     10       POPC     H14A     HL       0.250000       1.00800           0
      1203 MEMB     10       POPC     H14B     HL       0.250000       1.00800           0
      1204 MEMB     10       POPC     H14C     HL       0.250000       1.00800           0
      1205 MEMB     10       POPC     C15      CTL5    -0.350000       12.0110           0
      1206 MEMB     10       POPC     H15A     HL       0.250000       1.00800           0
      1207 MEMB     10       POPC     H15B     HL       0.250000       1.00800           0
      1208 MEMB     10       POPC     H15C     HL       0.250000       1.00800           0
      1209 MEMB     10       POPC     C11      CTL2    -0.800000E-01   12.0110           0
      1210 MEMB     10       POPC     H11A     HAL2     0.900000E-01   1.00800           0
      1211 MEMB     10       POPC     H11B     HAL2     0.900000E-01   1.00800           0
      1212 MEMB     10       POPC     P        PL        1.50000       30.9740           0
      1213 MEMB     10       POPC     O13      O2L     -0.780000       15.9994           0
      1214 MEMB     10       POPC     O14      O2L     -0.780000       15.9994           0
      1215 MEMB     10       POPC     O12      OSLP    -0.570000       15.9994           0
      1216 MEMB     10       POPC     O11      OSLP    -0.570000       15.9994           0
      1217 MEMB     10       POPC     C1       CTL2    -0.800000E-01   12.0110           0
      1218 MEMB     10       POPC     HA       HAL2     0.900000E-01   1.00800           0
      1219 MEMB     10       POPC     HB       HAL2     0.900000E-01   1.00800           0
      1220 MEMB     10       POPC     C2       CTL1     0.170000       12.0110           0
      1221 MEMB     10       POPC     HS       HAL1     0.900000E-01   1.00800           0
      1222 MEMB     10       POPC     O21      OSL     -0.490000       15.9994           0
      1223 MEMB     10       POPC     C21      CL       0.900000       12.0110           0
      1224 MEMB     10       POPC     O22      OBL     -0.630000       15.9994           0
      1225 MEMB     10       POPC     C22      CTL2    -0.220000       12.0110           0
      1226 MEMB     10       POPC     H2R      HAL2     0.900000E-01   1.00800           0
      1227 MEMB     10       POPC     H2S      HAL2     0.900000E-01   1.00800           0
      1228 MEMB     10       POPC     C3       CTL2     0.800000E-01   12.0110           0
      1229 MEMB     10       POPC     HX       HAL2     0.900000E-01   1.00800           0
      1230 MEMB     10       POPC     HY       HAL2     0.900000E-01   1.00800           0
      1231 MEMB     10       POPC     O31      OSL     -0.490000       15.9994           0
      1232 MEMB     10       POPC     C31      CL       0.900000       12.0110           0
      1233 MEMB     10       POPC     O32      OBL     -0.630000       15.9994           0
      1234 MEMB     10       POPC     C32      CTL2    -0.220000       12.0110           0
      1235 MEMB     10       POPC     H2X      HAL2     0.900000E-01   1.00800           0
      1236 MEMB     10       POPC     H2Y      HAL2     0.900000E-01   1.00800           0
      1237 MEMB     10       POPC     C23      CTL2    -0.180000       12.0110           0
      1238 MEMB     10       POPC     H3R      HAL2     0.900000E-01   1.00800           0
      1239 MEMB     10       POPC     H3S      HAL2     0.900000E-01   1.00800           0
      1240 MEMB     10       POPC     C24      CTL2    -0.180000       12.0110           0
      1241 MEMB     10       POPC     H4R      HAL2     0.900000E-01   1.00800           0
      1242 MEMB     10       POPC     H4S      HAL2     0.900000E-01   1.00800           0
      1243 MEMB     10       POPC     C25      CTL2    -0.180000       12.0110           0
      1244 MEMB     10       POPC     H5R      HAL2     0.900000E-01   1.00800           0
      1245 MEMB     10       POPC     H5S      HAL2     0.900000E-01   1.00800           0
      1246 MEMB     10       POPC     C26      CTL2    -0.180000       12.0110           0
      1247 MEMB     10       POPC     H6R      HAL2     0.900000E-01   1.00800           0
      1248 MEMB     10       POPC     H6S      HAL2     0.900000E-01   1.00800           0
      1249 MEMB     10       POPC     C27      CTL2    -0.180000       12.0110           0
      1250 MEMB     10       POPC     H7R      HAL2     0.900000E-01   1.00800           0
      1251 MEMB     10       POPC     H7S      HAL2     0.900000E-01   1.00800           0
      1252 MEMB     10       POPC     C28      CTL2    -0.180000       12.0110           0
      1253 MEMB     10       POPC     H8R      HAL2     0.900000E-01   1.00800           0
      1254 MEMB     10       POPC     H8S      HAL2     0.900000E-01   1.00800           0
      1255 MEMB     10       POPC     C29      CEL1    -0.150000       12.0110           0
      1256 MEMB     10       POPC     H91      HEL1     0.150000       1.00800           0
      1257 MEMB     10       POPC     C210     CEL1    -0.150000       12.0110           0
      1258 MEMB     10       POPC     H101     HEL1     0.150000       1.00800           0
      1259 MEMB     10       POPC     C211     CTL2    -0.180000       12.0110           0
      1260 MEMB     10       POPC     H11R     HAL2     0.900000E-01   1.00800           0
      1261 MEMB     10       POPC     H11S     HAL2     0.900000E-01   1.00800           0
      1262 MEMB     10       POPC     C212     CTL2    -0.180000       12.0110           0
      1263 MEMB     10       POPC     H12R     HAL2     0.900000E-01   1.00800           0
      1264 MEMB     10       POPC     H12S     HAL2     0.900000E-01   1.00800           0
      1265 MEMB     10       POPC     C213     CTL2    -0.180000       12.0110           0
      1266 MEMB     10       POPC     H13R     HAL2     0.900000E-01   1.00800           0
      1267 MEMB     10       POPC     H13S     HAL2     0.900000E-01   1.00800           0
      1268 MEMB     10       POPC     C214     CTL2    -0.180000       12.0110           0
      1269 MEMB     10       POPC     H14R     HAL2     0.900000E-01   1.00800           0
      1270 MEMB     10       POPC     H14S     HAL2     0.900000E-01   1.00800           0
      1271 MEMB     10       POPC     C215     CTL2    -0.180000       12.0110           0
      1272 MEMB     10       POPC     H15R     HAL2     0.900000E-01   1.00800           0
      1273 MEMB     10       POPC     H15S     HAL2     0.900000E-01   1.00800           0
      1274 MEMB     10       POPC     C216     CTL2    -0.180000       12.0110           0
      1275 MEMB     10       POPC     H16R     HAL2     0.900000E-01   1.00800           0
      1276 MEMB     10       POPC     H16S     HAL2     0.900000E-01   1.00800           0
      1277 MEMB     10       POPC     C217     CTL2    -0.180000       12.0110           0
      1278 MEMB     10       POPC     H17R     HAL2     0.900000E-01   1.00800           0
      1279 MEMB     10       POPC     H17S     HAL2     0.900000E-01   1.00800           0
      1280 MEMB     10       POPC     C218     CTL3    -0.270000       12.0110           0
      1281 MEMB     10       POPC     H18R     HAL3     0.900000E-01   1.00800           0
      1282 MEMB     10       POPC     H18S     HAL3     0.900000E-01   1.00800           0
      1283 MEMB     10       POPC     H18T     HAL3     0.900000E-01   1.00800           0
      1284 MEMB     10       POPC     C33      CTL2    -0.180000       12.0110           0
      1285 MEMB     10       POPC     H3X      HAL2     0.900000E-01   1.00800           0
      1286 MEMB     10       POPC     H3Y      HAL2     0.900000E-01   1.00800           0
      1287 MEMB     10       POPC     C34      CTL2    -0.180000       12.0110           0
      1288 MEMB     10       POPC     H4X      HAL2     0.900000E-01   1.00800           0
      1289 MEMB     10       POPC     H4Y      HAL2     0.900000E-01   1.00800           0
      1290 MEMB     10       POPC     C35      CTL2    -0.180000       12.0110           0
      1291 MEMB     10       POPC     H5X      HAL2     0.900000E-01   1.00800           0
      1292 MEMB     10       POPC     H5Y      HAL2     0.900000E-01   1.00800           0
      1293 MEMB     10       POPC     C36      CTL2    -0.180000       12.0110           0
      1294 MEMB     10       POPC     H6X      HAL2     0.900000E-01   1.00800           0
      1295 MEMB     10       POPC     H6Y      HAL2     0.900000E-01   1.00800           0
      1296 MEMB     10       POPC     C37      CTL2    -0.180000       12.0110           0
      1297 MEMB     10       POPC     H7X      HAL2     0.900000E-01   1.00800           0
      1298 MEMB     10       POPC     H7Y      HAL2     0.900000E-01   1.00800           0
      1299 MEMB     10       POPC     C38      CTL2    -0.180000       12.0110           0
      1300 MEMB     10       POPC     H8X      HAL2     0.900000E-01   1.00800           0
      1301 MEMB     10       POPC     H8Y      HAL2     0.900000E-01   1.00800           0
      1302 MEMB     10       POPC     C39      CTL2    -0.180000       12.0110           0
      1303 MEMB     10       POPC     H9X      HAL2     0.900000E-01   1.00800           0
      1304 MEMB     10       POPC     H9Y      HAL2     0.900000E-01   1.00800           0
      1305 MEMB     10       POPC     C310     CTL2    -0.180000       12.0110           0
      1306 MEMB     10       POPC     H10X     HAL2     0.900000E-01   1.00800           0
      1307 MEMB     10       POPC     H10Y     HAL2     0.900000E-01   1.00800           0
      1308 MEMB     10       POPC     C311     CTL2    -0.180000       12.0110           0
      1309 MEMB     10       POPC     H11X     HAL2     0.900000E-01   1.00800           0
      1310 MEMB     10       POPC     H11Y     HAL2     0.900000E-01   1.00800           0
      1311 MEMB     10       POPC     C312     CTL2    -0.180000       12.0110           0
      1312 MEMB     10       POPC     H12X     HAL2     0.900000E-01   1.00800           0
      1313 MEMB     10       POPC     H12Y     HAL2     0.900000E-01   1.00800           0
      1314 MEMB     10       POPC     C313     CTL2    -0.180000       12.0110           0
      1315 MEMB     10       POPC     H13X     HAL2     0.900000E-01   1.00800           0
      1316 MEMB     10       POPC     H13Y     HAL2     0.900000E-01   1.00800           0
      1317 MEMB     10       POPC     C314     CTL2    -0.180000       12.0110           0
      1318 MEMB     10       POPC     H14X     HAL2     0.900000E-01   1.00800           0
      1319 MEMB     10       POPC     H14Y     HAL2     0.900000E-01   1.00800           0
      1320 MEMB     10       POPC     C315     CTL2    -0.180000       12.0110           0
      1321 MEMB     10       POPC     H15X     HAL2     0.900000E-01   1.00800           0
      1322 MEMB     10       POPC     H15Y     HAL2     0.900000E-01   1.00800           0
      1323 MEMB     10       POPC     C316     CTL3    -0.270000       12.0110           0
      1324 MEMB     10       POPC     H16X     HAL3     0.900000E-01   1.00800           0
      1325 MEMB     10       POPC     H16Y     HAL3     0.900000E-01   1.00800           0
      1326 MEMB     10       POPC     H16Z     HAL3     0.900000E-01   1.00800           0
      1327 MEMB     11       POPS     N        NH3L    -0.300000       14.0070           0
      1328 MEMB     11       POPS     HN1      HCL      0.330000       1.00800           0
      1329 MEMB     11       POPS     HN2      HCL      0.330000       1.00800           0
      1330 MEMB     11       POPS     HN3      HCL      0.330000       1.00800           0
      1331 MEMB     11       POPS     C12      CTL1     0.210000       12.0110           0
      1332 MEMB     11       POPS     H12A     HBL      0.100000       1.00800           0
      1333 MEMB     11       POPS     C13      CCL      0.340000       12.0110           0
      1334 MEMB     11       POPS     O13A     OCL     -0.670000       15.9994           0
      1335 MEMB     11       POPS     O13B     OCL     -0.670000       15.9994           0
      1336 MEMB     11       POPS     C11      CTL2    -0.800000E-01   12.0110           0
      1337 MEMB     11       POPS     H11A     HAL2     0.900000E-01   1.00800           0
      1338 MEMB     11       POPS     H11B     HAL2     0.900000E-01   1.00800           0
      1339 MEMB     11       POPS     P        PL        1.50000       30.9740           0
      1340 MEMB     11       POPS     O13      O2L     -0.780000       15.9994           0
      1341 MEMB     11       POPS     O14      O2L     -0.780000       15.9994           0
      1342 MEMB     11       POPS     O12      OSLP    -0.570000       15.9994           0
      1343 MEMB     11       POPS     O11      OSLP    -0.570000       15.9994           0
      1344 MEMB     11       POPS     C1       CTL2    -0.800000E-01   12.0110           0
      1345 MEMB     11       POPS     HA       HAL2     0.900000E-01   1.00800           0
      1346 MEMB     11       POPS     HB       HAL2     0.900000E-01   1.00800           0
      1347 MEMB     11       POPS     C2       CTL1     0.170000       12.0110           0
      1348 MEMB     11       POPS     HS       HAL1     0.900000E-01   1.00800           0
      1349 MEMB     11       POPS     O21      OSL     -0.490000       15.9994           0
      1350 MEMB     11       POPS     C21      CL       0.900000       12.0110           0
      1351 MEMB     11       POPS     O22      OBL     -0.630000       15.9994           0
      1352 MEMB     11       POPS     C22      CTL2    -0.220000       12.0110           0
      1353 MEMB     11       POPS     H2R      HAL2     0.900000E-01   1.00800           0
      1354 MEMB     11       POPS     H2S      HAL2     0.900000E-01   1.00800           0
      1355 MEMB     11       POPS     C3       CTL2     0.800000E-01   12.0110           0
      1356 MEMB     11       POPS     HX       HAL2     0.900000E-01   1.00800           0
      1357 MEMB     11       POPS     HY       HAL2     0.900000E-01   1.00800           0
      1358 MEMB     11       POPS     O31      OSL     -0.490000       15.9994           0
      1359 MEMB     11       POPS     C31      CL       0.900000       12.0110           0
      1360 MEMB     11       POPS     O32      OBL     -0.630000       15.9994           0
      1361 MEMB     11       POPS     C32      CTL2    -0.220000       12.0110           0
      1362 MEMB     11       POPS     H2X      HAL2     0.900000E-01   1.00800           0
      1363 MEMB     11       POPS     H2Y      HAL2     0.900000E-01   1.00800           0
      1364 MEMB     11       POPS     C23      CTL2    -0.180000       12.0110           0
      1365 MEMB     11       POPS     H3R      HAL2     0.900000E-01   1.00800           0
      1366 MEMB     11       POPS     H3S      HAL2     0.900000E-01   1.00800           0
      1367 MEMB     11       POPS     C24      CTL2    -0.180000       12.0110           0
      1368 MEMB     11       POPS     H4R      HAL2     0.900000E-01   1.00800           0
      1369 MEMB     11       POPS     H4S      HAL2     0.900000E-01   1.00800           0
      1370 MEMB     11       POPS     C25      CTL2    -0.180000       12.0110           0
      1371 MEMB     11       POPS     H5R      HAL2     0.900000E-01   1.00800           0
      1372 MEMB     11       POPS     H5S      HAL2     0.900000E-01   1.00800           0
      1373 MEMB     11       POPS     C26      CTL2    -0.180000       12.0110           0
      1374 MEMB     11       POPS     H6R      HAL2     0.900000E-01   1.00800           0
      1375 MEMB     11       POPS     H6S      HAL2     0.900000E-01   1.00800           0
      1376 MEMB     11       POPS     C27      CTL2    -0.180000       12.0110           0
      1377 MEMB     11       POPS     H7R      HAL2     0.900000E-01   1.00800           0
      1378 MEMB     11       POPS     H7S      HAL2     0.900000E-01   1.00800           0
      1379 MEMB     11       POPS     C28      CTL2    -0.180000       12.0110           0
      1380 MEMB     11       POPS     H8R      HAL2     0.900000E-01   1.00800           0
      1381 MEMB     11       POPS     H8S      HAL2     0.900000E-01   1.00800           0
      1382 MEMB     11       POPS     C29      CEL1    -0.150000       12.0110           0
      1383 MEMB     11       POPS     H91      HEL1     0.150000       1.00800           0
      1384 MEMB     11       POPS     C210     CEL1    -0.150000       12.0110           0
      1385 MEMB     11       POPS     H101     HEL1     0.150000       1.00800           0
      1386 MEMB     11       POPS     C211     CTL2    -0.180000       12.0110           0
      1387 MEMB     11       POPS     H11R     HAL2     0.900000E-01   1.00800           0
      1388 MEMB     11       POPS     H11S     HAL2     0.900000E-01   1.00800           0
      1389 MEMB     11       POPS     C212     CTL2    -0.180000       12.0110           0
      1390 MEMB     11       POPS     H12R     HAL2     0.900000E-01   1.00800           0
      1391 MEMB     11       POPS     H12S     HAL2     0.900000E-01   1.00800           0
      1392 MEMB     11       POPS     C213     CTL2    -0.180000       12.0110           0
      1393 MEMB     11       POPS     H13R     HAL2     0.900000E-01   1.00800           0
      1394 MEMB     11       POPS     H13S     HAL2     0.900000E-01   1.00800           0
      1395 MEMB     11       POPS     C214     CTL2    -0.180000       12.0110           0
      1396 MEMB     11       POPS     H14R     HAL2     0.900000E-01   1.00800           0
      1397 MEMB     11       POPS     H14S     HAL2     0.900000E-01   1.00800           0
      1398 MEMB     11       POPS     C215     CTL2    -0.180000       12.0110           0
      1399 MEMB     11       POPS     H15R     HAL2     0.900000E-01   1.00800           0
      1400 MEMB     11       POPS     H15S     HAL2     0.900000E-01   1.00800           0
      1401 MEMB     11       POPS     C216     CTL2    -0.180000       12.0110           0
      1402 MEMB     11       POPS     H16R     HAL2     0.900000E-01   1.00800           0
      1403 MEMB     11       POPS     H16S     HAL2     0.900000E-01   1.00800           0
      1404 MEMB     11       POPS     C217     CTL2    -0.180000       12.0110           0
      1405 MEMB     11       POPS     H17R     HAL2     0.900000E-01   1.00800           0
      1406 MEMB     11       POPS     H17S     HAL2     0.900000E-01   1.00800           0
      1407 MEMB     11       POPS     C218     CTL3    -0.270000       12.0110           0
      1408 MEMB     11       POPS     H18R     HAL3     0.900000E-01   1.00800           0
      1409 MEMB     11       POPS     H18S     HAL3     0.900000E-01   1.00800           0
      1410 MEMB     11       POPS     H18T     HAL3     0.900000E-01   1.00800           0
      1411 MEMB     11       POPS     C33      CTL2    -0.180000       12.0110           0
      1412 MEMB     11       POPS     H3X      HAL2     0.900000E-01   1.00800           0
      1413 MEMB     11       POPS     H3Y      HAL2     0.900000E-01   1.00800           0
      1414 MEMB     11       POPS     C34      CTL2    -0.180000       12.0110           0
      1415 MEMB     11       POPS     H4X      HAL2     0.900000E-01   1.00800           0
      1416 MEMB     11       POPS     H4Y      HAL2     0.900000E-01   1.00800           0
      1417 MEMB     11       POPS     C35      CTL2    -0.180000       12.0110           0
      1418 MEMB     11       POPS     H5X      HAL2     0.900000E-01   1.00800           0
      1419 MEMB     11       POPS     H5Y      HAL2     0.900000E-01   1.00800           0
      1420 MEMB     11       POPS     C36      CTL2    -0.180000       12.0110           0
      1421 MEMB     11       POPS     H6X      HAL2     0.900000E-01   1.00800           0
      1422 MEMB     11       POPS     H6Y      HAL2     0.900000E-01   1.00800           0
      1423 MEMB     11       POPS     C37      CTL2    -0.180000       12.0110           0
      1424 MEMB     11       POPS     H7X      HAL2     0.900000E-01   1.00800           0
      1425 MEMB     11       POPS     H7Y      HAL2     0.900000E-01   1.00800           0
      1426 MEMB     11       POPS     C38      CTL2    -0.180000       12.0110           0
      1427 MEMB     11       POPS     H8X      HAL2     0.900000E-01   1.00800           0
      1428 MEMB     11       POPS     H8Y      HAL2     0.900000E-01   1.00800           0
      1429 MEMB     11       POPS     C39      CTL2    -0.180000       12.0110           0
      1430 MEMB     11       POPS     H9X      HAL2     0.900000E-01   1.00800           0
      1431 MEMB     11       POPS     H9Y      HAL2     0.900000E-01   1.00800           0
      1432 MEMB     11       POPS     C310     CTL2    -0.180000       12.0110           0
      1433 MEMB     11       POPS     H10X     HAL2     0.900000E-01   1.00800           0
      1434 MEMB     11       POPS     H10Y     HAL2     0.900000E-01   1.00800           0
      1435 MEMB     11       POPS     C311     CTL2    -0.180000       12.0110           0
      1436 MEMB     11       POPS     H11X     HAL2     0.900000E-01   1.00800           0
      1437 MEMB     11       POPS     H11Y     HAL2     0.900000E-01   1.00800           0
      1438 MEMB     11       POPS     C312     CTL2    -0.180000       12.0110           0
      1439 MEMB     11       POPS     H12X     HAL2     0.900000E-01   1.00800           0
      1440 MEMB     11       POPS     H12Y     HAL2     0.900000E-01   1.00800           0
      1441 MEMB     11       POPS     C313     CTL2    -0.180000       12.0110           0
      1442 MEMB     11       POPS     H13X     HAL2     0.900000E-01   1.00800           0
      1443 MEMB     11       POPS     H13Y     HAL2     0.900000E-01   1.00800           0
      1444 MEMB     11       POPS     C314     CTL2    -0.180000       12.0110           0
      1445 MEMB     11       POPS     H14X     HAL2     0.900000E-01   1.00800           0
      1446 MEMB     11       POPS     H14Y     HAL2     0.900000E-01   1.00800           0
      1447 MEMB     11       POPS     C315     CTL2    -0.180000       12.0110           0
      1448 MEMB     11       POPS     H15X     HAL2     0.900000E-01   1.00800           0
      1449 MEMB     11       POPS     H15Y     HAL2     0.900000E-01   1.00800           0
      1450 MEMB     11       POPS     C316     CTL3    -0.270000       12.0110           0
      1451 MEMB     11       POPS     H16X     HAL3     0.900000E-01   1.00800           0
      1452 MEMB     11       POPS     H16Y     HAL3     0.900000E-01   1.00800           0
      1453 MEMB     11       POPS     H16Z     HAL3     0.900000E-01   1.00800           0
      1454 MEMB     12       POPS     N        NH3L    -0.300000       14.0070           0
      1455 MEMB     12       POPS     HN1      HCL      0.330000       1.00800           0
      1456 MEMB     12       POPS     HN2      HCL      0.330000       1.00800           0
      1457 MEMB     12       POPS     HN3      HCL      0.330000       1.00800           0
      1458 MEMB     12       POPS     C12      CTL1     0.210000       12.0110           0
      1459 MEMB     12       POPS     H12A     HBL      0.100000       1.00800           0
      1460 MEMB     12       POPS     C13      CCL      0.340000       12.0110           0
      1461 MEMB     12       POPS     O13A     OCL     -0.670000       15.9994           0
      1462 MEMB     12       POPS     O13B     OCL     -0.670000       15.9994           0
      1463 MEMB     12       POPS     C11      CTL2    -0.800000E-01   12.0110           0
      1464 MEMB     12       POPS     H11A     HAL2     0.900000E-01   1.00800           0
      1465 MEMB     12       POPS     H11B     HAL2     0.900000E-01   1.00800           0
      1466 MEMB     12       POPS     P        PL        1.50000       30.9740           0
      1467 MEMB     12       POPS     O13      O2L     -0.780000       15.9994           0
      1468 MEMB     12       POPS     O14      O2L     -0.780000       15.9994           0
      1469 MEMB     12       POPS     O12      OSLP    -0.570000       15.9994           0
      1470 MEMB     12       POPS     O11      OSLP    -0.570000       15.9994           0
      1471 MEMB     12       POPS     C1       CTL2    -0.800000E-01   12.0110           0
      1472 MEMB     12       POPS     HA       HAL2     0.900000E-01   1.00800           0
      1473 MEMB     12       POPS     HB       HAL2     0.900000E-01   1.00800           0
      1474 MEMB     12       POPS     C2       CTL1     0.170000       12.0110           0
      1475 MEMB     12       POPS     HS       HAL1     0.900000E-01   1.00800           0
      1476 MEMB     12       POPS     O21      OSL     -0.490000       15.9994           0
      1477 MEMB     12       POPS     C21      CL       0.900000       12.0110           0
      1478 MEMB     12       POPS     O22      OBL     -0.630000       15.9994           0
      1479 MEMB     12       POPS     C22      CTL2    -0.220000       12.0110           0
      1480 MEMB     12       POPS     H2R      HAL2     0.900000E-01   1.00800           0
      1481 MEMB     12       POPS     H2S      HAL2     0.900000E-01   1.00800           0
      1482 MEMB     12       POPS     C3       CTL2     0.800000E-01   12.0110           0
      1483 MEMB     12       POPS     HX       HAL2     0.900000E-01   1.00800           0
      1484 MEMB     12       POPS     HY       HAL2     0.900000E-01   1.00800           0
      1485 MEMB     12       POPS     O31      OSL     -0.490000       15.9994           0
      1486 MEMB     12       POPS     C31      CL       0.900000       12.0110           0
      1487 MEMB     12       POPS     O32      OBL     -0.630000       15.9994           0
      1488 MEMB     12       POPS     C32      CTL2    -0.220000       12.0110           0
      1489 MEMB     12       POPS     H2X      HAL2     0.900000E-01   1.00800           0
      1490 MEMB     12       POPS     H2Y      HAL2     0.900000E-01   1.00800           0
      1491 MEMB     12       POPS     C23      CTL2    -0.180000       12.0110           0
      1492 MEMB     12       POPS     H3R      HAL2     0.900000E-01   1.00800           0
      1493 MEMB     12       POPS     H3S      HAL2     0.900000E-01   1.00800           0
      1494 MEMB     12       POPS     C24      CTL2    -0.180000       12.0110           0
      1495 MEMB     12       POPS     H4R      HAL2     0.900000E-01   1.00800           0
      1496 MEMB     12       POPS     H4S      HAL2     0.900000E-01   1.00800           0
      1497 MEMB     12       POPS     C25      CTL2    -0.180000       12.0110           0
      1498 MEMB     12       POPS     H5R      HAL2     0.900000E-01   1.00800           0
      1499 MEMB     12       POPS     H5S      HAL2     0.900000E-01   1.00800           0
      1500 MEMB     12       POPS     C26      CTL2    -0.180000       12.0110           0
      1501 MEMB     12       POPS     H6R      HAL2     0.900000E-01   1.00800           0
      1502 MEMB     12       POPS     H6S      HAL2     0.900000E-01   1.00800           0
      1503 MEMB     12       POPS     C27      CTL2    -0.180000       12.0110           0
      1504 MEMB     12       POPS     H7R      HAL2     0.900000E-01   1.00800           0
      1505 MEMB     12       POPS     H7S      HAL2     0.900000E-01   1.00800           0
      1506 MEMB     12       POPS     C28      CTL2    -0.180000       12.0110           0
      1507 MEMB     12       POPS     H8R      HAL2     0.900000E-01   1.00800           0
      1508 MEMB     12       POPS     H8S      HAL2     0.900000E-01   1.00800           0
      1509 MEMB     12       POPS     C29      CEL1    -0.150000       12.0110           0
      1510 MEMB     12       POPS     H91      HEL1     0.150000       1.00800           0
      1511 MEMB     12       POPS     C210     CEL1    -0.150000       12.0110           0
      1512 MEMB     12       POPS     H101     HEL1     0.150000       1.00800           0
      1513 MEMB     12       POPS     C211     CTL2    -0.180000       12.0110           0
      1514 MEMB     12       POPS     H11R     HAL2     0.900000E-01   1.00800           0
      1515 MEMB     12       POPS     H11S     HAL2     0.900000E-01   1.00800           0
      1516 MEMB     12       POPS     C212     CTL2    -0.180000       12.0110           0
      1517 MEMB     12       POPS     H12R     HAL2     0.900000E-01   1.00800           0
      1518 MEMB     12       POPS     H12S     HAL2     0.900000E-01   1.00800           0
      1519 MEMB     12       POPS     C213     CTL2    -0.180000       12.0110           0
      1520 MEMB     12       POPS     H13R     HAL2     0.900000E-01   1.00800           0
      1521 MEMB     12       POPS     H13S     HAL2     0.900000E-01   1.00800           0
      1522 MEMB     12       POPS     C214     CTL2    -0.180000       12.0110           0
      1523 MEMB     12       POPS     H14R     HAL2     0.900000E-01   1.00800           0
      1524 MEMB     12       POPS     H14S     HAL2     0.900000E-01   1.00800           0
      1525 MEMB     12       POPS     C215     CTL2    -0.180000       12.0110           0
      1526 MEMB     12       POPS     H15R     HAL2     0.900000E-01   1.00800           0
      1527 MEMB     12       POPS     H15S     HAL2     0.900000E-01   1.00800           0
      1528 MEMB     12       POPS     C216     CTL2    -0.180000       12.0110           0
      1529 MEMB     12       POPS     H16R     HAL2     0.900000E-01   1.00800           0
      1530 MEMB     12       POPS     H16S     HAL2     0.900000E-01   1.00800           0
      1531 MEMB     12       POPS     C217     CTL2    -0.180000       12.0110           0
      1532 MEMB     12       POPS     H17R     HAL2     0.900000E-01   1.00800           0
      1533 MEMB     12       POPS     H17S     HAL2     0.900000E-01   1.00800           0
      1534 MEMB     12       POPS     C218     CTL3    -0.270000       12.0110           0
      1535 MEMB     12       POPS     H18R     HAL3     0.900000E-01   1.00800           0
      1536 MEMB     12       POPS     H18S     HAL3     0.900000E-01   1.00800           0
      1537 MEMB     12       POPS     H18T     HAL3     0.900000E-01   1.00800           0
      1538 MEMB     12       POPS     C33      CTL2    -0.180000       12.0110           0
      1539 MEMB     12       POPS     H3X      HAL2     0.900000E-01   1.00800           0
      1540 MEMB     12       POPS     H3Y      HAL2     0.900000E-01   1.00800           0
      1541 MEMB     12       POPS     C34      CTL2    -0.180000       12.0110           0
      1542 MEMB     12       POPS     H4X      HAL2     0.900000E-01   1.00800           0
      1543 MEMB     12       POPS     H4Y      HAL2     0.900000E-01   1.00800           0
      1544 MEMB     12       POPS     C35      CTL2    -0.180000       12.0110           0
      1545 MEMB     12       POPS     H5X      HAL2     0.900000E-01   1.00800           0
      1546 MEMB     12       POPS     H5Y      HAL2     0.900000E-01   1.00800           0
      1547 MEMB     12       POPS     C36      CTL2    -0.180000       12.0110           0
      1548 MEMB     12       POPS     H6X      HAL2     0.900000E-01   1.00800           0
      1549 MEMB     12       POPS     H6Y      HAL2     0.900000E-01   1.00800           0
      1550 MEMB     12       POPS     C37      CTL2    -0.180000       12.0110           0
      1551 MEMB     12       POPS     H7X      HAL2     0.900000E-01   1.00800           0
      1552 MEMB     12       POPS     H7Y      HAL2     0.900000E-01   1.00800           0
      1553 MEMB     12       POPS     C38      CTL2    -0.180000       12.0110           0
      1554 MEMB     12       POPS     H8X      HAL2     0.900000E-01   1.00800           0
      1555 MEMB     12       POPS     H8Y      HAL2     0.900000E-01   1.00800           0
      1556 MEMB     12       POPS     C39      CTL2    -0.180000       12.0110           0
      1557 MEMB     12       POPS     H9X      HAL2     0.900000E-01   1.00800           0
      1558 MEMB     12       POPS     H9Y      HAL2     0.900000E-01   1.00800           0
      1559 MEMB     12       POPS     C310     CTL2    -0.180000       12.0110           0
      1560 MEMB     12       POPS     H10X     HAL2     0.900000E-01   1.00800           0
      1561 MEMB     12       POPS     H10Y     HAL2     0.900000E-01   1.00800           0
      1562 MEMB     12       POPS     C311     CTL2    -0.180000       12.0110           0
      1563 MEMB     12       POPS     H11X     HAL2     0.900000E-01   1.00800           0
      1564 MEMB     12       POPS     H11Y     HAL2     0.900000E-01   1.00800           0
      1565 MEMB     12       POPS     C312     CTL2    -0.180000       12.0110           0
      1566 MEMB     12       POPS     H12X     HAL2     0.900000E-01   1.00800           0
      1567 MEMB     12       POPS     H12Y     HAL2     0.900000E-01   1.00800           0
      1568 MEMB     12       POPS     C313     CTL2    -0.180000       12.0110           0
      1569 MEMB     12       POPS     H13X     HAL2     0.900000E-01   1.00800           0
      1570 MEMB     12       POPS     H13Y     HAL2     0.900000E-01   1.00800           0
      1571 MEMB     12       POPS     C314     CTL2    -0.180000       12.0110           0
      1572 MEMB     12       POPS     H14X     HAL2     0.900000E-01   1.00800           0
      1573 MEMB     12       POPS     H14Y     HAL2     0.900000E-01   1.00800           0
      1574 MEMB     12       POPS     C315     CTL2    -0.180000       12.0110           0
      1575 MEMB     12       POPS     H15X     HAL2     0.900000E-01   1.00800           0
      1576 MEMB     12       POPS     H15Y     HAL2     0.900000E-01   1.00800           0
      1577 MEMB     12       POPS     C316     CTL3    -0.270000       12.0110           0
      1578 MEMB     12       POPS     H16X     HAL3     0.900000E-01   1.00800           0
      1579 MEMB     12       POPS     H16Y     HAL3     0.900000E-01   1.00800           0
      1580 MEMB     12       POPS     H16Z     HAL3     0.900000E-01   1.00800           0
      1581 MEMB     13       POPC     N        NTL     -0.600000       14.0070           0
      1582 MEMB     13       POPC     C12      CTL2    -0.100000       12.0110           0
      1583 MEMB     13       POPC     H12A     HL       0.250000       1.00800           0
      1584 MEMB     13       POPC     H12B     HL       0.250000       1.00800           0
      1585 MEMB     13       POPC     C13      CTL5    -0.350000       12.0110           0
      1586 MEMB     13       POPC     H13A     HL       0.250000       1.00800           0
      1587 MEMB     13       POPC     H13B     HL       0.250000       1.00800           0
      1588 MEMB     13       POPC     H13C     HL       0.250000       1.00800           0
      1589 MEMB     13       POPC     C14      CTL5    -0.350000       12.0110           0
      1590 MEMB     13       POPC     H14A     HL       0.250000       1.00800           0
      1591 MEMB     13       POPC     H14B     HL       0.250000       1.00800           0
      1592 MEMB     13       POPC     H14C     HL       0.250000       1.00800           0
      1593 MEMB     13       POPC     C15      CTL5    -0.350000       12.0110           0
      1594 MEMB     13       POPC     H15A     HL       0.250000       1.00800           0
      1595 MEMB     13       POPC     H15B     HL       0.250000       1.00800           0
      1596 MEMB     13       POPC     H15C     HL       0.250000       1.00800           0
      1597 MEMB     13       POPC     C11      CTL2    -0.800000E-01   12.0110           0
      1598 MEMB     13       POPC     H11A     HAL2     0.900000E-01   1.00800           0
      1599 MEMB     13       POPC     H11B     HAL2     0.900000E-01   1.00800           0
      1600 MEMB     13       POPC     P        PL        1.50000       30.9740           0
      1601 MEMB     13       POPC     O13      O2L     -0.780000       15.9994           0
      1602 MEMB     13       POPC     O14      O2L     -0.780000       15.9994           0
      1603 MEMB     13       POPC     O12      OSLP    -0.570000       15.9994           0
      1604 MEMB     13       POPC     O11      OSLP    -0.570000       15.9994           0
      1605 MEMB     13       POPC     C1       CTL2    -0.800000E-01   12.0110           0
      1606 MEMB     13       POPC     HA       HAL2     0.900000E-01   1.00800           0
      1607 MEMB     13       POPC     HB       HAL2     0.900000E-01   1.00800           0
      1608 MEMB     13       POPC     C2       CTL1     0.170000       12.0110           0
      1609 MEMB     13       POPC     HS       HAL1     0.900000E-01   1.00800           0
      1610 MEMB     13       POPC     O21      OSL     -0.490000       15.9994           0
      1611 MEMB     13       POPC     C21      CL       0.900000       12.0110           0
      1612 MEMB     13       POPC     O22      OBL     -0.630000       15.9994           0
      1613 MEMB     13       POPC     C22      CTL2    -0.220000       12.0110           0
      1614 MEMB     13       POPC     H2R      HAL2     0.900000E-01   1.00800           0
      1615 MEMB     13       POPC     H2S      HAL2     0.900000E-01   1.00800           0
      1616 MEMB     13       POPC     C3       CTL2     0.800000E-01   12.0110           0
      1617 MEMB     13       POPC     HX       HAL2     0.900000E-01   1.00800           0
      1618 MEMB     13       POPC     HY       HAL2     0.900000E-01   1.00800           0
      1619 MEMB     13       POPC     O31      OSL     -0.490000       15.9994           0
      1620 MEMB     13       POPC     C31      CL       0.900000       12.0110           0
      1621 MEMB     13       POPC     O32      OBL     -0.630000       15.9994           0
      1622 MEMB     13       POPC     C32      CTL2    -0.220000       12.0110           0
      1623 MEMB     13       POPC     H2X      HAL2     0.900000E-01   1.00800           0
      1624 MEMB     13       POPC     H2Y      HAL2     0.900000E-01   1.00800           0
      1625 MEMB     13       POPC     C23      CTL2    -0.180000       12.0110           0
      1626 MEMB     13       POPC     H3R      HAL2     0.900000E-01   1.00800           0
      1627 MEMB     13       POPC     H3S      HAL2     0.900000E-01   1.00800           0
      1628 MEMB     13       POPC     C24      CTL2    -0.180000       12.0110           0
      1629 MEMB     13       POPC     H4R      HAL2     0.900000E-01   1.00800           0
      1630 MEMB     13       POPC     H4S      HAL2     0.900000E-01   1.00800           0
      1631 MEMB     13       POPC     C25      CTL2    -0.180000       12.0110           0
      1632 MEMB     13       POPC     H5R      HAL2     0.900000E-01   1.00800           0
      1633 MEMB     13       POPC     H5S      HAL2     0.900000E-01   1.00800           0
      1634 MEMB     13       POPC     C26      CTL2    -0.180000       12.0110           0
      1635 MEMB     13       POPC     H6R      HAL2     0.900000E-01   1.00800           0
      1636 MEMB     13       POPC     H6S      HAL2     0.900000E-01   1.00800           0
      1637 MEMB     13       POPC     C27      CTL2    -0.180000       12.0110           0
      1638 MEMB     13       POPC     H7R      HAL2     0.900000E-01   1.00800           0
      1639 MEMB     13       POPC     H7S      HAL2     0.900000E-01   1.00800           0
      1640 MEMB     13       POPC     C28      CTL2    -0.180000       12.0110           0
      1641 MEMB     13       POPC     H8R      HAL2     0.900000E-01   1.00800           0
      1642 MEMB     13       POPC     H8S      HAL2     0.900000E-01   1.00800           0
      1643 MEMB     13       POPC     C29      CEL1    -0.150000       12.0110           0
      1644 MEMB     13       POPC     H91      HEL1     0.150000       1.00800           0
      1645 MEMB     13       POPC     C210     CEL1    -0.150000       12.0110           0
      1646 MEMB     13       POPC     H101     HEL1     0.150000       1.00800           0
      1647 MEMB     13       POPC     C211     CTL2    -0.180000       12.0110           0
      1648 MEMB     13       POPC     H11R     HAL2     0.900000E-01   1.00800           0
      1649 MEMB     13       POPC     H11S     HAL2     0.900000E-01   1.00800           0
      1650 MEMB     13       POPC     C212     CTL2    -0.180000       12.0110           0
      1651 MEMB     13       POPC     H12R     HAL2     0.900000E-01   1.00800           0
      1652 MEMB     13       POPC     H12S     HAL2     0.900000E-01   1.00800           0
      1653 MEMB     13       POPC     C213     CTL2    -0.180000       12.0110           0
      1654 MEMB     13       POPC     H13R     HAL2     0.900000E-01   1.00800           0
      1655 MEMB     13       POPC     H13S     HAL2     0.900000E-01   1.00800           0
      1656 MEMB     13       POPC     C214     CTL2    -0.180000       12.0110           0
      1657 MEMB     13       POPC     H14R     HAL2     0.900000E-01   1.00800           0
      1658 MEMB     13       POPC     H14S     HAL2     0.900000E-01   1.00800           0
      1659 MEMB     13       POPC     C215     CTL2    -0.180000       12.0110           0
      1660 MEMB     13       POPC     H15R     HAL2     0.900000E-01   1.00800           0
      1661 MEMB     13       POPC     H15S     HAL2     0.900000E-01   1.00800           0
      1662 MEMB     13       POPC     C216     CTL2    -0.180000       12.0110           0
      1663 MEMB     13       POPC     H16R     HAL2     0.900000E-01   1.00800           0
      1664 MEMB     13       POPC     H16S     HAL2     0.900000E-01   1.00800           0
      1665 MEMB     13       POPC     C217     CTL2    -0.180000       12.0110           0
      1666 MEMB     13       POPC     H17R     HAL2     0.900000E-01   1.00800           0
      1667 MEMB     13       POPC     H17S     HAL2     0.900000E-01   1.00800           0
      1668 MEMB     13       POPC     C218     CTL3    -0.270000       12.0110           0
      1669 MEMB     13       POPC     H18R     HAL3     0.900000E-01   1.00800           0
      1670 MEMB     13       POPC     H18S     HAL3     0.900000E-01   1.00800           0
      1671 MEMB     13       POPC     H18T     HAL3     0.900000E-01   1.00800           0
      1672 MEMB     13       POPC     C33      CTL2    -0.180000       12.0110           0
      1673 MEMB     13       POPC     H3X      HAL2     0.900000E-01   1.00800           0
      1674 MEMB     13       POPC     H3Y      HAL2     0.900000E-01   1.00800           0
      1675 MEMB     13       POPC     C34      CTL2    -0.180000       12.0110           0
      1676 MEMB     13       POPC     H4X      HAL2     0.900000E-01   1.00800           0
      1677 MEMB     13       POPC     H4Y      HAL2     0.900000E-01   1.00800           0
      1678 MEMB     13       POPC     C35      CTL2    -0.180000       12.0110           0
      1679 MEMB     13       POPC     H5X      HAL2     0.900000E-01   1.00800           0
      1680 MEMB     13       POPC     H5Y      HAL2     0.900000E-01   1.00800           0
      1681 MEMB     13       POPC     C36      CTL2    -0.180000       12.0110           0
      1682 MEMB     13       POPC     H6X      HAL2     0.900000E-01   1.00800           0
      1683 MEMB     13       POPC     H6Y      HAL2     0.900000E-01   1.00800           0
      1684 MEMB     13       POPC     C37      CTL2    -0.180000       12.0110           0
      1685 MEMB     13       POPC     H7X      HAL2     0.900000E-01   1.00800           0
      1686 MEMB     13       POPC     H7Y      HAL2     0.900000E-01   1.00800           0
      1687 MEMB     13       POPC     C38      CTL2    -0.180000       12.0110           0
      1688 MEMB     13       POPC     H8X      HAL2     0.900000E-01   1.00800           0
      1689 MEMB     13       POPC     H8Y      HAL2     0.900000E-01   1.00800           0
      1690 MEMB     13       POPC     C39      CTL2    -0.180000       12.0110           0
      1691 MEMB     13       POPC     H9X      HAL2     0.900000E-01   1.00800           0
      1692 MEMB     13       POPC     H9Y      HAL2     0.900000E-01   1.00800           0
      1693 MEMB     13       POPC     C310     CTL2    -0.180000       12.0110           0
      1694 MEMB     13       POPC     H10X     HAL2     0.900000E-01   1.00800           0
      1695 MEMB     13       POPC     H10Y     HAL2     0.900000E-01   1.00800           0
      1696 MEMB     13       POPC     C311     CTL2    -0.180000       12.0110           0
      1697 MEMB     13       POPC     H11X     HAL2     0.900000E-01   1.00800           0
      1698 MEMB     13       POPC     H11Y     HAL2     0.900000E-01   1.00800           0
      1699 MEMB     13       POPC     C312     CTL2    -0.180000       12.0110           0
      1700 MEMB     13       POPC     H12X     HAL2     0.900000E-01   1.00800           0
      1701 MEMB     13       POPC     H12Y     HAL2     0.900000E-01   1.00800           0
      1702 MEMB     13       POPC     C313     CTL2    -0.180000       12.0110           0
      1703 MEMB     13       POPC     H13X     HAL2     0.900000E-01   1.00800           0
      1704 MEMB     13       POPC     H13Y     HAL2     0.900000E-01   1.00800           0
      1705 MEMB     13       POPC     C314     CTL2    -0.180000       12.0110           0
      1706 MEMB     13       POPC     H14X     HAL2     0.900000E-01   1.00800           0
      1707 MEMB     13       POPC     H14Y     HAL2     0.900000E-01   1.00800           0
      1708 MEMB     13       POPC     C315     CTL2    -0.180000       12.0110           0
      1709 MEMB     13       POPC     H15X     HAL2     0.900000E-01   1.00800           0
      1710 MEMB     13       POPC     H15Y     HAL2     0.900000E-01   1.00800           0
      1711 MEMB     13       POPC     C316     CTL3    -0.270000       12.0110           0
      1712 MEMB     13       POPC     H16X     HAL3     0.900000E-01   1.00800           0
      1713 MEMB     13       POPC     H16Y     HAL3     0.900000E-01   1.00800           0
      1714 MEMB     13       POPC     H16Z     HAL3     0.900000E-01   1.00800           0
      1715 MEMB     14       POPC     N        NTL     -0.600000       14.0070           0
      1716 MEMB     14       POPC     C12      CTL2    -0.100000       12.0110           0
      1717 MEMB     14       POPC     H12A     HL       0.250000       1.00800           0
      1718 MEMB     14       POPC     H12B     HL       0.250000       1.00800           0
      1719 MEMB     14       POPC     C13      CTL5    -0.350000       12.0110           0
      1720 MEMB     14       POPC     H13A     HL       0.250000       1.00800           0
      1721 MEMB     14       POPC     H13B     HL       0.250000       1.00800           0
      1722 MEMB     14       POPC     H13C     HL       0.250000       1.00800           0
      1723 MEMB     14       POPC     C14      CTL5    -0.350000       12.0110           0
      1724 MEMB     14       POPC     H14A     HL       0.250000       1.00800           0
      1725 MEMB     14       POPC     H14B     HL       0.250000       1.00800           0
      1726 MEMB     14       POPC     H14C     HL       0.250000       1.00800           0
      1727 MEMB     14       POPC     C15      CTL5    -0.350000       12.0110           0
      1728 MEMB     14       POPC     H15A     HL       0.250000       1.00800           0
      1729 MEMB     14       POPC     H15B     HL       0.250000       1.00800           0
      1730 MEMB     14       POPC     H15C     HL       0.250000       1.00800           0
      1731 MEMB     14       POPC     C11      CTL2    -0.800000E-01   12.0110           0
      1732 MEMB     14       POPC     H11A     HAL2     0.900000E-01   1.00800           0
      1733 MEMB     14       POPC     H11B     HAL2     0.900000E-01   1.00800           0
      1734 MEMB     14       POPC     P        PL        1.50000       30.9740           0
      1735 MEMB     14       POPC     O13      O2L     -0.780000       15.9994           0
      1736 MEMB     14       POPC     O14      O2L     -0.780000       15.9994           0
      1737 MEMB     14       POPC     O12      OSLP    -0.570000       15.9994           0
      1738 MEMB     14       POPC     O11      OSLP    -0.570000       15.9994           0
      1739 MEMB     14       POPC     C1       CTL2    -0.800000E-01   12.0110           0
      1740 MEMB     14       POPC     HA       HAL2     0.900000E-01   1.00800           0
      1741 MEMB     14       POPC     HB       HAL2     0.900000E-01   1.00800           0
      1742 MEMB     14       POPC     C2       CTL1     0.170000       12.0110           0
      1743 MEMB     14       POPC     HS       HAL1     0.900000E-01   1.00800           0
      1744 MEMB     14       POPC     O21      OSL     -0.490000       15.9994           0
      1745 MEMB     14       POPC     C21      CL       0.900000       12.0110           0
      1746 MEMB     14       POPC     O22      OBL     -0.630000       15.9994           0
      1747 MEMB     14       POPC     C22      CTL2    -0.220000       12.0110           0
      1748 MEMB     14       POPC     H2R      HAL2     0.900000E-01   1.00800           0
      1749 MEMB     14       POPC     H2S      HAL2     0.900000E-01   1.00800           0
      1750 MEMB     14       POPC     C3       CTL2     0.800000E-01   12.0110           0
      1751 MEMB     14       POPC     HX       HAL2     0.900000E-01   1.00800           0
      1752 MEMB     14       POPC     HY       HAL2     0.900000E-01   1.00800           0
      1753 MEMB     14       POPC     O31      OSL     -0.490000       15.9994           0
      1754 MEMB     14       POPC     C31      CL       0.900000       12.0110           0
      1755 MEMB     14       POPC     O32      OBL     -0.630000       15.9994           0
      1756 MEMB     14       POPC     C32      CTL2    -0.220000       12.0110           0
      1757 MEMB     14       POPC     H2X      HAL2     0.900000E-01   1.00800           0
      1758 MEMB     14       POPC     H2Y      HAL2     0.900000E-01   1.00800           0
      1759 MEMB     14       POPC     C23      CTL2    -0.180000       12.0110           0
      1760 MEMB     14       POPC     H3R      HAL2     0.900000E-01   1.00800           0
      1761 MEMB     14       POPC     H3S      HAL2     0.900000E-01   1.00800           0
      1762 MEMB     14       POPC     C24      CTL2    -0.180000       12.0110           0
      1763 MEMB     14       POPC     H4R      HAL2     0.900000E-01   1.00800           0
      1764 MEMB     14       POPC     H4S      HAL2     0.900000E-01   1.00800           0
      1765 MEMB     14       POPC     C25      CTL2    -0.180000       12.0110           0
      1766 MEMB     14       POPC     H5R      HAL2     0.900000E-01   1.00800           0
      1767 MEMB     14       POPC     H5S      HAL2     0.900000E-01   1.00800           0
      1768 MEMB     14       POPC     C26      CTL2    -0.180000       12.0110           0
      1769 MEMB     14       POPC     H6R      HAL2     0.900000E-01   1.00800           0
      1770 MEMB     14       POPC     H6S      HAL2     0.900000E-01   1.00800           0
      1771 MEMB     14       POPC     C27      CTL2    -0.180000       12.0110           0
      1772 MEMB     14       POPC     H7R      HAL2     0.900000E-01   1.00800           0
      1773 MEMB     14       POPC     H7S      HAL2     0.900000E-01   1.00800           0
      1774 MEMB     14       POPC     C28      CTL2    -0.180000       12.0110           0
      1775 MEMB     14       POPC     H8R      HAL2     0.900000E-01   1.00800           0
      1776 MEMB     14       POPC     H8S      HAL2     0.900000E-01   1.00800           0
      1777 MEMB     14       POPC     C29      CEL1    -0.150000       12.0110           0
      1778 MEMB     14       POPC     H91      HEL1     0.150000       1.00800           0
      1779 MEMB     14       POPC     C210     CEL1    -0.150000       12.0110           0
      1780 MEMB     14       POPC     H101     HEL1     0.150000       1.00800           0
      1781 MEMB     14       POPC     C211     CTL2    -0.180000       12.0110           0
      1782 MEMB     14       POPC     H11R     HAL2     0.900000E-01   1.00800           0
      1783 MEMB     14       POPC     H11S     HAL2     0.900000E-01   1.00800           0
      1784 MEMB     14       POPC     C212     CTL2    -0.180000       12.0110           0
      1785 MEMB     14       POPC     H12R     HAL2     0.900000E-01   1.00800           0
      1786 MEMB     14       POPC     H12S     HAL2     0.900000E-01   1.00800           0
      1787 MEMB     14       POPC     C213     CTL2    -0.180000       12.0110           0
      1788 MEMB     14       POPC     H13R     HAL2     0.900000E-01   1.00800           0
      1789 MEMB     14       POPC     H13S     HAL2     0.900000E-01   1.00800           0
      1790 MEMB     14       POPC     C214     CTL2    -0.180000       12.0110           0
      1791 MEMB     14       POPC     H14R     HAL2     0.900000E-01   1.00800           0
      1792 MEMB     14       POPC     H14S     HAL2     0.900000E-01   1.00800           0
      1793 MEMB     14       POPC     C215     CTL2    -0.180000       12.0110           0
      1794 MEMB     14       POPC     H15R     HAL2     0.900000E-01   1.00800           0
      1795 MEMB     14       POPC     H15S     HAL2     0.900000E-01   1.00800           0
      1796 MEMB     14       POPC     C216     CTL2    -0.180000       12.0110           0
      1797 MEMB     14       POPC     H16R     HAL2     0.900000E-01   1.00800           0
      1798 MEMB     14       POPC     H16S     HAL2     0.900000E-01   1.00800           0
      1799 MEMB     14       POPC     C217     CTL2    -0.180000       12.0110           0
      1800 MEMB     14       POPC     H17R     HAL2     0.900000E-01   1.00800           0
      1801 MEMB     14       POPC     H17S     HAL2     0.900000E-01   1.00800           0
      1802 MEMB     14       POPC     C218     CTL3    -0.270000       12.0110           0
      1803 MEMB     14       POPC     H18R     HAL3     0.900000E-01   1.00800           0
      1804 MEMB     14       POPC     H18S     HAL3     0.900000E-01   1.00800           0
      1805 MEMB     14       POPC     H18T     HAL3     0.900000E-01   1.00800           0
      1806 MEMB     14       POPC     C33      CTL2    -0.180000       12.0110           0
      1807 MEMB     14       POPC     H3X      HAL2     0.900000E-01   1.00800           0
      1808 MEMB     14       POPC     H3Y      HAL2     0.900000E-01   1.00800           0
      1809 MEMB     14       POPC     C34      CTL2    -0.180000       12.0110           0
      1810 MEMB     14       POPC     H4X      HAL2     0.900000E-01   1.00800           0
      1811 MEMB     14       POPC     H4Y      HAL2     0.900000E-01   1.00800           0
      1812 MEMB     14       POPC     C35      CTL2    -0.180000       12.0110           0
      1813 MEMB     14       POPC     H5X      HAL2     0.900000E-01   1.00800           0
      1814 MEMB     14       POPC     H5Y      HAL2     0.900000E-01   1.00800           0
      1815 MEMB     14       POPC     C36      CTL2    -0.180000       12.0110           0
      1816 MEMB     14       POPC     H6X      HAL2     0.900000E-01   1.00800           0
      1817 MEMB     14       POPC     H6Y      HAL2     0.900000E-01   1.00800           0
      1818 MEMB     14       POPC     C37      CTL2    -0.180000       12.0110           0
      1819 MEMB     14       POPC     H7X      HAL2     0.900000E-01   1.00800           0
      1820 MEMB     14       POPC     H7Y      HAL2     0.900000E-01   1.00800           0
      1821 MEMB     14       POPC     C38      CTL2    -0.180000       12.0110           0
      1822 MEMB     14       POPC     H8X      HAL2     0.900000E-01   1.00800           0
      1823 MEMB     14       POPC     H8Y      HAL2     0.900000E-01   1.00800           0
      1824 MEMB     14       POPC     C39      CTL2    -0.180000       12.0110           0
      1825 MEMB     14       POPC     H9X      HAL2     0.900000E-01   1.00800           0
      1826 MEMB     14       POPC     H9Y      HAL2     0.900000E-01   1.00800           0
      1827 MEMB     14       POPC     C310     CTL2    -0.180000       12.0110           0
      1828 MEMB     14       POPC     H10X     HAL2     0.900000E-01   1.00800           0
      1829 MEMB     14       POPC     H10Y     HAL2     0.900000E-01   1.00800           0
      1830 MEMB     14       POPC     C311     CTL2    -0.180000       12.0110           0
      1831 MEMB     14       POPC     H11X     HAL2     0.900000E-01   1.00800           0
      1832 MEMB     14       POPC     H11Y     HAL2     0.900000E-01   1.00800           0
      1833 MEMB     14       POPC     C312     CTL2    -0.180000       12.0110           0
      1834 MEMB     14       POPC     H12X     HAL2     0.900000E-01   1.00800           0
      1835 MEMB     14       POPC     H12Y     HAL2     0.900000E-01   1.00800           0
      1836 MEMB     14       POPC     C313     CTL2    -0.180000       12.0110           0
      1837 MEMB     14       POPC     H13X     HAL2     0.900000E-01   1.00800           0
      1838 MEMB     14       POPC     H13Y     HAL2     0.900000E-01   1.00800           0
      1839 MEMB     14       POPC     C314     CTL2    -0.180000       12.0110           0
      1840 MEMB     14       POPC     H14X     HAL2     0.900000E-01   1.00800           0
      1841 MEMB     14       POPC     H14Y     HAL2     0.900000E-01   1.00800           0
      1842 MEMB     14       POPC     C315     CTL2    -0.180000       12.0110           0
      1843 MEMB     14       POPC     H15X     HAL2     0.900000E-01   1.00800           0
      1844 MEMB     14       POPC     H15Y     HAL2     0.900000E-01   1.00800           0
      1845 MEMB     14       POPC     C316     CTL3    -0.270000       12.0110           0
      1846 MEMB     14       POPC     H16X     HAL3     0.900000E-01   1.00800           0
      1847 MEMB     14       POPC     H16Y     HAL3     0.900000E-01   1.00800           0
      1848 MEMB     14       POPC     H16Z     HAL3     0.900000E-01   1.00800           0
      1849 MEMB     15       POPC     N        NTL     -0.600000       14.0070           0
      1850 MEMB     15       POPC     C12      CTL2    -0.100000       12.0110           0
      1851 MEMB     15       POPC     H12A     HL       0.250000       1.00800           0
      1852 MEMB     15       POPC     H12B     HL       0.250000       1.00800           0
      1853 MEMB     15       POPC     C13      CTL5    -0.350000       12.0110           0
      1854 MEMB     15       POPC     H13A     HL       0.250000       1.00800           0
      1855 MEMB     15       POPC     H13B     HL       0.250000       1.00800           0
      1856 MEMB     15       POPC     H13C     HL       0.250000       1.00800           0
      1857 MEMB     15       POPC     C14      CTL5    -0.350000       12.0110           0
      1858 MEMB     15       POPC     H14A     HL       0.250000       1.00800           0
      1859 MEMB     15       POPC     H14B     HL       0.250000       1.00800           0
      1860 MEMB     15       POPC     H14C     HL       0.250000       1.00800           0
      1861 MEMB     15       POPC     C15      CTL5    -0.350000       12.0110           0
      1862 MEMB     15       POPC     H15A     HL       0.250000       1.00800           0
      1863 MEMB     15       POPC     H15B     HL       0.250000       1.00800           0
      1864 MEMB     15       POPC     H15C     HL       0.250000       1.00800           0
      1865 MEMB     15       POPC     C11      CTL2    -0.800000E-01   12.0110           0
      1866 MEMB     15       POPC     H11A     HAL2     0.900000E-01   1.00800           0
      1867 MEMB     15       POPC     H11B     HAL2     0.900000E-01   1.00800           0
      1868 MEMB     15       POPC     P        PL        1.50000       30.9740           0
      1869 MEMB     15       POPC     O13      O2L     -0.780000       15.9994           0
      1870 MEMB     15       POPC     O14      O2L     -0.780000       15.9994           0
      1871 MEMB     15       POPC     O12      OSLP    -0.570000       15.9994           0
      1872 MEMB     15       POPC     O11      OSLP    -0.570000       15.9994           0
      1873 MEMB     15       POPC     C1       CTL2    -0.800000E-01   12.0110           0
      1874 MEMB     15       POPC     HA       HAL2     0.900000E-01   1.00800           0
      1875 MEMB     15       POPC     HB       HAL2     0.900000E-01   1.00800           0
      1876 MEMB     15       POPC     C2       CTL1     0.170000       12.0110           0
      1877 MEMB     15       POPC     HS       HAL1     0.900000E-01   1.00800           0
      1878 MEMB     15       POPC     O21      OSL     -0.490000       15.9994           0
      1879 MEMB     15       POPC     C21      CL       0.900000       12.0110           0
      1880 MEMB     15       POPC     O22      OBL     -0.630000       15.9994           0
      1881 MEMB     15       POPC     C22      CTL2    -0.220000       12.0110           0
      1882 MEMB     15       POPC     H2R      HAL2     0.900000E-01   1.00800           0
      1883 MEMB     15       POPC     H2S      HAL2     0.900000E-01   1.00800           0
      1884 MEMB     15       POPC     C3       CTL2     0.800000E-01   12.0110           0
      1885 MEMB     15       POPC     HX       HAL2     0.900000E-01   1.00800           0
      1886 MEMB     15       POPC     HY       HAL2     0.900000E-01   1.00800           0
      1887 MEMB     15       POPC     O31      OSL     -0.490000       15.9994           0
      1888 MEMB     15       POPC     C31      CL       0.900000       12.0110           0
      1889 MEMB     15       POPC     O32      OBL     -0.630000       15.9994           0
      1890 MEMB     15       POPC     C32      CTL2    -0.220000       12.0110           0
      1891 MEMB     15       POPC     H2X      HAL2     0.900000E-01   1.00800           0
      1892 MEMB     15       POPC     H2Y      HAL2     0.900000E-01   1.00800           0
      1893 MEMB     15       POPC     C23      CTL2    -0.180000       12.0110           0
      1894 MEMB     15       POPC     H3R      HAL2     0.900000E-01   1.00800           0
      1895 MEMB     15       POPC     H3S      HAL2     0.900000E-01   1.00800           0
      1896 MEMB     15       POPC     C24      CTL2    -0.180000       12.0110           0
      1897 MEMB     15       POPC     H4R      HAL2     0.900000E-01   1.00800           0
      1898 MEMB     15       POPC     H4S      HAL2     0.900000E-01   1.00800           0
      1899 MEMB     15       POPC     C25      CTL2    -0.180000       12.0110           0
      1900 MEMB     15       POPC     H5R      HAL2     0.900000E-01   1.00800           0
      1901 MEMB     15       POPC     H5S      HAL2     0.900000E-01   1.00800           0
      1902 MEMB     15       POPC     C26      CTL2    -0.180000       12.0110           0
      1903 MEMB     15       POPC     H6R      HAL2     0.900000E-01   1.00800           0
      1904 MEMB     15       POPC     H6S      HAL2     0.900000E-01   1.00800           0
      1905 MEMB     15       POPC     C27      CTL2    -0.180000       12.0110           0
      1906 MEMB     15       POPC     H7R      HAL2     0.900000E-01   1.00800           0
      1907 MEMB     15       POPC     H7S      HAL2     0.900000E-01   1.00800           0
      1908 MEMB     15       POPC     C28      CTL2    -0.180000       12.0110           0
      1909 MEMB     15       POPC     H8R      HAL2     0.900000E-01   1.00800           0
      1910 MEMB     15       POPC     H8S      HAL2     0.900000E-01   1.00800           0
      1911 MEMB     15       POPC     C29      CEL1    -0.150000       12.0110           0
      1912 MEMB     15       POPC     H91      HEL1     0.150000       1.00800           0
      1913 MEMB     15       POPC     C210     CEL1    -0.150000       12.0110           0
      1914 MEMB     15       POPC     H101     HEL1     0.150000       1.00800           0
      1915 MEMB     15       POPC     C211     CTL2    -0.180000       12.0110           0
      1916 MEMB     15       POPC     H11R     HAL2     0.900000E-01   1.00800           0
      1917 MEMB     15       POPC     H11S     HAL2     0.900000E-01   1.00800           0
      1918 MEMB     15       POPC     C212     CTL2    -0.180000       12.0110           0
      1919 MEMB     15       POPC     H12R     HAL2     0.900000E-01   1.00800           0
      1920 MEMB     15       POPC     H12S     HAL2     0.900000E-01   1.00800           0
      1921 MEMB     15       POPC     C213     CTL2    -0.180000       12.0110           0
      1922 MEMB     15       POPC     H13R     HAL2     0.900000E-01   1.00800           0
      1923 MEMB     15       POPC     H13S     HAL2     0.900000E-01   1.00800           0
      1924 MEMB     15       POPC     C214     CTL2    -0.180000       12.0110           0
      1925 MEMB     15       POPC     H14R     HAL2     0.900000E-01   1.00800           0
      1926 MEMB     15       POPC     H14S     HAL2     0.900000E-01   1.00800           0
      1927 MEMB     15       POPC     C215     CTL2    -0.180000       12.0110           0
      1928 MEMB     15       POPC     H15R     HAL2     0.900000E-01   1.00800           0
      1929 MEMB     15       POPC     H15S     HAL2     0.900000E-01   1.00800           0
      1930 MEMB     15       POPC     C216     CTL2    -0.180000       12.0110           0
      1931 MEMB     15       POPC     H16R     HAL2     0.900000E-01   1.00800           0
      1932 MEMB     15       POPC     H16S     HAL2     0.900000E-01   1.00800           0
      1933 MEMB     15       POPC     C217     CTL2    -0.180000       12.0110           0
      1934 MEMB     15       POPC     H17R     HAL2     0.900000E-01   1.00800           0
      1935 MEMB     15       POPC     H17S     HAL2     0.900000E-01   1.00800           0
      1936 MEMB     15       POPC     C218     CTL3    -0.270000       12.0110           0
      1937 MEMB     15       POPC     H18R     HAL3     0.900000E-01   1.00800           0
      1938 MEMB     15       POPC     H18S     HAL3     0.900000E-01   1.00800           0
      1939 MEMB     15       POPC     H18T     HAL3     0.900000E-01   1.00800           0
      1940 MEMB     15       POPC     C33      CTL2    -0.180000       12.0110           0
      1941 MEMB     15       POPC     H3X      HAL2     0.900000E-01   1.00800           0
      1942 MEMB     15       POPC     H3Y      HAL2     0.900000E-01   1.00800           0
      1943 MEMB     15       POPC     C34      CTL2    -0.180000       12.0110           0
      1944 MEMB     15       POPC     H4X      HAL2     0.900000E-01   1.00800           0
      1945 MEMB     15       POPC     H4Y      HAL2     0.900000E-01   1.00800           0
      1946 MEMB     15       POPC     C35      CTL2    -0.180000       12.0110           0
      1947 MEMB     15       POPC     H5X      HAL2     0.900000E-01   1.00800           0
      1948 MEMB     15       POPC     H5Y      HAL2     0.900000E-01   1.00800           0
      1949 MEMB     15       POPC     C36      CTL2    -0.180000       12.0110           0
      1950 MEMB     15       POPC     H6X      HAL2     0.900000E-01   1.00800           0
      1951 MEMB     15       POPC     H6Y      HAL2     0.900000E-01   1.00800           0
      1952 MEMB     15       POPC     C37      CTL2    -0.180000       12.0110           0
      1953 MEMB     15       POPC     H7X      HAL2     0.900000E-01   1.00800           0
      1954 MEMB     15       POPC     H7Y      HAL2     0.900000E-01   1.00800           0
      1955 MEMB     15       POPC     C38      CTL2    -0.180000       12.0110           0
      1956 MEMB     15       POPC     H8X      HAL2     0.900000E-01   1.00800           0
      1957 MEMB     15       POPC     H8Y      HAL2     0.900000E-01   1.00800           0
      1958 MEMB     15       POPC     C39      CTL2    -0.180000       12.0110           0
      1959 MEMB     15       POPC     H9X      HAL2     0.900000E-01   1.00800           0
      1960 MEMB     15       POPC     H9Y      HAL2     0.900000E-01   1.00800           0
      1961 MEMB     15       POPC     C310     CTL2    -0.180000       12.0110           0
      1962 MEMB     15       POPC     H10X     HAL2     0.900000E-01   1.00800           0
      1963 MEMB     15       POPC     H10Y     HAL2     0.900000E-01   1.00800           0
      1964 MEMB     15       POPC     C311     CTL2    -0.180000       12.0110           0
      1965 MEMB     15       POPC     H11X     HAL2     0.900000E-01   1.00800           0
      1966 MEMB     15       POPC     H11Y     HAL2     0.900000E-01   1.00800           0
      1967 MEMB     15       POPC     C312     CTL2    -0.180000       12.0110           0
      1968 MEMB     15       POPC     H12X     HAL2     0.900000E-01   1.00800           0
      1969 MEMB     15       POPC     H12Y     HAL2     0.900000E-01   1.00800           0
      1970 MEMB     15       POPC     C313     CTL2    -0.180000       12.0110           0
      1971 MEMB     15       POPC     H13X     HAL2     0.900000E-01   1.00800           0
      1972 MEMB     15       POPC     H13Y     HAL2     0.900000E-01   1.00800           0
      1973 MEMB     15       POPC     C314     CTL2    -0.180000       12.0110           0
      1974 MEMB     15       POPC     H14X     HAL2     0.900000E-01   1.00800           0
      1975 MEMB     15       POPC     H14Y     HAL2     0.900000E-01   1.00800           0
      1976 MEMB     15       POPC     C315     CTL2    -0.180000       12.0110           0
      1977 MEMB     15       POPC     H15X     HAL2     0.900000E-01   1.00800           0
      1978 MEMB     15       POPC     H15Y     HAL2     0.900000E-01   1.00800           0
      1979 MEMB     15       POPC     C316     CTL3    -0.270000       12.0110           0
      1980 MEMB     15       POPC     H16X     HAL3     0.900000E-01   1.00800           0
      1981 MEMB     15       POPC     H16Y     HAL3     0.900000E-01   1.00800           0
      1982 MEMB     15       POPC     H16Z     HAL3     0.900000E-01   1.00800           0
      1983 MEMB     16       POPC     N        NTL     -0.600000       14.0070           0
      1984 MEMB     16       POPC     C12      CTL2    -0.100000       12.0110           0
      1985 MEMB     16       POPC     H12A     HL       0.250000       1.00800           0
      1986 MEMB     16       POPC     H12B     HL       0.250000       1.00800           0
      1987 MEMB     16       POPC     C13      CTL5    -0.350000       12.0110           0
      1988 MEMB     16       POPC     H13A     HL       0.250000       1.00800           0
      1989 MEMB     16       POPC     H13B     HL       0.250000       1.00800           0
      1990 MEMB     16       POPC     H13C     HL       0.250000       1.00800           0
      1991 MEMB     16       POPC     C14      CTL5    -0.350000       12.0110           0
      1992 MEMB     16       POPC     H14A     HL       0.250000       1.00800           0
      1993 MEMB     16       POPC     H14B     HL       0.250000       1.00800           0
      1994 MEMB     16       POPC     H14C     HL       0.250000       1.00800           0
      1995 MEMB     16       POPC     C15      CTL5    -0.350000       12.0110           0
      1996 MEMB     16       POPC     H15A     HL       0.250000       1.00800           0
      1997 MEMB     16       POPC     H15B     HL       0.250000       1.00800           0
      1998 MEMB     16       POPC     H15C     HL       0.250000       1.00800           0
      1999 MEMB     16       POPC     C11      CTL2    -0.800000E-01   12.0110           0
      2000 MEMB     16       POPC     H11A     HAL2     0.900000E-01   1.00800           0
      2001 MEMB     16       POPC     H11B     HAL2     0.900000E-01   1.00800           0
      2002 MEMB     16       POPC     P        PL        1.50000       30.9740           0
      2003 MEMB     16       POPC     O13      O2L     -0.780000       15.9994           0
      2004 MEMB     16       POPC     O14      O2L     -0.780000       15.9994           0
      2005 MEMB     16       POPC     O12      OSLP    -0.570000       15.9994           0
      2006 MEMB     16       POPC     O11      OSLP    -0.570000       15.9994           0
      2007 MEMB     16       POPC     C1       CTL2    -0.800000E-01   12.0110           0
      2008 MEMB     16       POPC     HA       HAL2     0.900000E-01   1.00800           0
      2009 MEMB     16       POPC     HB       HAL2     0.900000E-01   1.00800           0
      2010 MEMB     16       POPC     C2       CTL1     0.170000       12.0110           0
      2011 MEMB     16       POPC     HS       HAL1     0.900000E-01   1.00800           0
      2012 MEMB     16       POPC     O21      OSL     -0.490000       15.9994           0
      2013 MEMB     16       POPC     C21      CL       0.900000       12.0110           0
      2014 MEMB     16       POPC     O22      OBL     -0.630000       15.9994           0
      2015 MEMB     16       POPC     C22      CTL2    -0.220000       12.0110           0
      2016 MEMB     16       POPC     H2R      HAL2     0.900000E-01   1.00800           0
      2017 MEMB     16       POPC     H2S      HAL2     0.900000E-01   1.00800           0
      2018 MEMB     16       POPC     C3       CTL2     0.800000E-01   12.0110           0
      2019 MEMB     16       POPC     HX       HAL2     0.900000E-01   1.00800           0
      2020 MEMB     16       POPC     HY       HAL2     0.900000E-01   1.00800           0
      2021 MEMB     16       POPC     O31      OSL     -0.490000       15.9994           0
      2022 MEMB     16       POPC     C31      CL       0.900000       12.0110           0
      2023 MEMB     16       POPC     O32      OBL     -0.630000       15.9994           0
      2024 MEMB     16       POPC     C32      CTL2    -0.220000       12.0110           0
      2025 MEMB     16       POPC     H2X      HAL2     0.900000E-01   1.00800           0
      2026 MEMB     16       POPC     H2Y      HAL2     0.900000E-01   1.00800           0
      2027 MEMB     16       POPC     C23      CTL2    -0.180000       12.0110           0
      2028 MEMB     16       POPC     H3R      HAL2     0.900000E-01   1.00800           0
      2029 MEMB     16       POPC     H3S      HAL2     0.900000E-01   1.00800           0
      2030 MEMB     16       POPC     C24      CTL2    -0.180000       12.0110           0
      2031 MEMB     16       POPC     H4R      HAL2     0.900000E-01   1.00800           0
      2032 MEMB     16       POPC     H4S      HAL2     0.900000E-01   1.00800           0
      2033 MEMB     16       POPC     C25      CTL2    -0.180000       12.0110           0
      2034 MEMB     16       POPC     H5R      HAL2     0.900000E-01   1.00800           0
      2035 MEMB     16       POPC     H5S      HAL2     0.900000E-01   1.00800           0
      2036 MEMB     16       POPC     C26      CTL2    -0.180000       12.0110           0
      2037 MEMB     16       POPC     H6R      HAL2     0.900000E-01   1.00800           0
      2038 MEMB     16       POPC     H6S      HAL2     0.900000E-01   1.00800           0
      2039 MEMB     16       POPC     C27      CTL2    -0.180000       12.0110           0
      2040 MEMB     16       POPC     H7R      HAL2     0.900000E-01   1.00800           0
      2041 MEMB     16       POPC     H7S      HAL2     0.900000E-01   1.00800           0
      2042 MEMB     16       POPC     C28      CTL2    -0.180000       12.0110           0
      2043 MEMB     16       POPC     H8R      HAL2     0.900000E-01   1.00800           0
      2044 MEMB     16       POPC     H8S      HAL2     0.900000E-01   1.00800           0
      2045 MEMB     16       POPC     C29      CEL1    -0.150000       12.0110           0
      2046 MEMB     16       POPC     H91      HEL1     0.150000       1.00800           0
      2047 MEMB     16       POPC     C210     CEL1    -0.150000       12.0110           0
      2048 MEMB     16       POPC     H101     HEL1     0.150000       1.00800           0
      2049 MEMB     16       POPC     C211     CTL2    -0.180000       12.0110           0
      2050 MEMB     16       POPC     H11R     HAL2     0.900000E-01   1.00800           0
      2051 MEMB     16       POPC     H11S     HAL2     0.900000E-01   1.00800           0
      2052 MEMB     16       POPC     C212     CTL2    -0.180000       12.0110           0
      2053 MEMB     16       POPC     H12R     HAL2     0.900000E-01   1.00800           0
      2054 MEMB     16       POPC     H12S     HAL2     0.900000E-01   1.00800           0
      2055 MEMB     16       POPC     C213     CTL2    -0.180000       12.0110           0
      2056 MEMB     16       POPC     H13R     HAL2     0.900000E-01   1.00800           0
      2057 MEMB     16       POPC     H13S     HAL2     0.900000E-01   1.00800           0
      2058 MEMB     16       POPC     C214     CTL2    -0.180000       12.0110           0
      2059 MEMB     16       POPC     H14R     HAL2     0.900000E-01   1.00800           0
      2060 MEMB     16       POPC     H14S     HAL2     0.900000E-01   1.00800           0
      2061 MEMB     16       POPC     C215     CTL2    -0.180000       12.0110           0
      2062 MEMB     16       POPC     H15R     HAL2     0.900000E-01   1.00800           0
      2063 MEMB     16       POPC     H15S     HAL2     0.900000E-01   1.00800           0
      2064 MEMB     16       POPC     C216     CTL2    -0.180000       12.0110           0
      2065 MEMB     16       POPC     H16R     HAL2     0.900000E-01   1.00800           0
      2066 MEMB     16       POPC     H16S     HAL2     0.900000E-01   1.00800           0
      2067 MEMB     16       POPC     C217     CTL2    -0.180000       12.0110           0
      2068 MEMB     16       POPC     H17R     HAL2     0.900000E-01   1.00800           0
      2069 MEMB     16       POPC     H17S     HAL2     0.900000E-01   1.00800           0
      2070 MEMB     16       POPC     C218     CTL3    -0.270000       12.0110           0
      2071 MEMB     16       POPC     H18R     HAL3     0.900000E-01   1.00800           0
      2072 MEMB     16       POPC     H18S     HAL3     0.900000E-01   1.00800           0
      2073 MEMB     16       POPC     H18T     HAL3     0.900000E-01   1.00800           0
      2074 MEMB     16       POPC     C33      CTL2    -0.180000       12.0110           0
      2075 MEMB     16       POPC     H3X      HAL2     0.900000E-01   1.00800           0
      2076 MEMB     16       POPC     H3Y      HAL2     0.900000E-01   1.00800           0
      2077 MEMB     16       POPC     C34      CTL2    -0.180000       12.0110           0
      2078 MEMB     16       POPC     H4X      HAL2     0.900000E-01   1.00800           0
      2079 MEMB     16       POPC     H4Y      HAL2     0.900000E-01   1.00800           0
      2080 MEMB     16       POPC     C35      CTL2    -0.180000       12.0110           0
      2081 MEMB     16       POPC     H5X      HAL2     0.900000E-01   1.00800           0
      2082 MEMB     16       POPC     H5Y      HAL2     0.900000E-01   1.00800           0
      2083 MEMB     16       POPC     C36      CTL2    -0.180000       12.0110           0
      2084 MEMB     16       POPC     H6X      HAL2     0.900000E-01   1.00800           0
      2085 MEMB     16       POPC     H6Y      HAL2     0.900000E-01   1.00800           0
      2086 MEMB     16       POPC     C37      CTL2    -0.180000       12.0110           0
      2087 MEMB     16       POPC     H7X      HAL2     0.900000E-01   1.00800           0
      2088 MEMB     16       POPC     H7Y      HAL2     0.900000E-01   1.00800           0
      2089 MEMB     16       POPC     C38      CTL2    -0.180000       12.0110           0
      2090 MEMB     16       POPC     H8X      HAL2     0.900000E-01   1.00800           0
      2091 MEMB     16       POPC     H8Y      HAL2     0.900000E-01   1.00800           0
      2092 MEMB     16       POPC     C39      CTL2    -0.180000       12.0110           0
      2093 MEMB     16       POPC     H9X      HAL2     0.900000E-01   1.00800           0
      2094 MEMB     16       POPC     H9Y      HAL2     0.900000E-01   1.00800           0
      2095 MEMB     16       POPC     C310     CTL2    -0.180000       12.0110           0
      2096 MEMB     16       POPC     H10X     HAL2     0.900000E-01   1.00800           0
      2097 MEMB     16       POPC     H10Y     HAL2     0.900000E-01   1.00800           0
      2098 MEMB     16       POPC     C311     CTL2    -0.180000       12.0110           0
      2099 MEMB     16       POPC     H11X     HAL2     0.900000E-01   1.00800           0
      2100 MEMB     16       POPC     H11Y     HAL2     0.900000E-01   1.00800           0
      2101 MEMB     16       POPC     C312     CTL2    -0.180000       12.0110           0
      2102 MEMB     16       POPC     H12X     HAL2     0.900000E-01   1.00800           0
      2103 MEMB     16       POPC     H12Y     HAL2     0.900000E-01   1.00800           0
      2104 MEMB     16       POPC     C313     CTL2    -0.180000       12.0110           0
      2105 MEMB     16       POPC     H13X     HAL2     0.900000E-01   1.00800           0
      2106 MEMB     16       POPC     H13Y     HAL2     0.900000E-01   1.00800           0
      2107 MEMB     16       POPC     C314     CTL2    -0.180000       12.0110           0
      2108 MEMB     16       POPC     H14X     HAL2     0.900000E-01   1.00800           0
      2109 MEMB     16       POPC     H14Y     HAL2     0.900000E-01   1.00800           0
      2110 MEMB     16       POPC     C315     CTL2    -0.180000       12.0110           0
      2111 MEMB     16       POPC     H15X     HAL2     0.900000E-01   1.00800           0
      2112 MEMB     16       POPC     H15Y     HAL2     0.900000E-01   1.00800           0
      2113 MEMB     16       POPC     C316     CTL3    -0.270000       12.0110           0
      2114 MEMB     16       POPC     H16X     HAL3     0.900000E-01   1.00800           0
      2115 MEMB     16       POPC     H16Y     HAL3     0.900000E-01   1.00800           0
      2116 MEMB     16       POPC     H16Z     HAL3     0.900000E-01   1.00800           0
      2117 MEMB     17       POPC     N        NTL     -0.600000       14.0070           0
      2118 MEMB     17       POPC     C12      CTL2    -0.100000       12.0110           0
      2119 MEMB     17       POPC     H12A     HL       0.250000       1.00800           0
      2120 MEMB     17       POPC     H12B     HL       0.250000       1.00800           0
      2121 MEMB     17       POPC     C13      CTL5    -0.350000       12.0110           0
      2122 MEMB     17       POPC     H13A     HL       0.250000       1.00800           0
      2123 MEMB     17       POPC     H13B     HL       0.250000       1.00800           0
      2124 MEMB     17       POPC     H13C     HL       0.250000       1.00800           0
      2125 MEMB     17       POPC     C14      CTL5    -0.350000       12.0110           0
      2126 MEMB     17       POPC     H14A     HL       0.250000       1.00800           0
      2127 MEMB     17       POPC     H14B     HL       0.250000       1.00800           0
      2128 MEMB     17       POPC     H14C     HL       0.250000       1.00800           0
      2129 MEMB     17       POPC     C15      CTL5    -0.350000       12.0110           0
      2130 MEMB     17       POPC     H15A     HL       0.250000       1.00800           0
      2131 MEMB     17       POPC     H15B     HL       0.250000       1.00800           0
      2132 MEMB     17       POPC     H15C     HL       0.250000       1.00800           0
      2133 MEMB     17       POPC     C11      CTL2    -0.800000E-01   12.0110           0
      2134 MEMB     17       POPC     H11A     HAL2     0.900000E-01   1.00800           0
      2135 MEMB     17       POPC     H11B     HAL2     0.900000E-01   1.00800           0
      2136 MEMB     17       POPC     P        PL        1.50000       30.9740           0
      2137 MEMB     17       POPC     O13      O2L     -0.780000       15.9994           0
      2138 MEMB     17       POPC     O14      O2L     -0.780000       15.9994           0
      2139 MEMB     17       POPC     O12      OSLP    -0.570000       15.9994           0
      2140 MEMB     17       POPC     O11      OSLP    -0.570000       15.9994           0
      2141 MEMB     17       POPC     C1       CTL2    -0.800000E-01   12.0110           0
      2142 MEMB     17       POPC     HA       HAL2     0.900000E-01   1.00800           0
      2143 MEMB     17       POPC     HB       HAL2     0.900000E-01   1.00800           0
      2144 MEMB     17       POPC     C2       CTL1     0.170000       12.0110           0
      2145 MEMB     17       POPC     HS       HAL1     0.900000E-01   1.00800           0
      2146 MEMB     17       POPC     O21      OSL     -0.490000       15.9994           0
      2147 MEMB     17       POPC     C21      CL       0.900000       12.0110           0
      2148 MEMB     17       POPC     O22      OBL     -0.630000       15.9994           0
      2149 MEMB     17       POPC     C22      CTL2    -0.220000       12.0110           0
      2150 MEMB     17       POPC     H2R      HAL2     0.900000E-01   1.00800           0
      2151 MEMB     17       POPC     H2S      HAL2     0.900000E-01   1.00800           0
      2152 MEMB     17       POPC     C3       CTL2     0.800000E-01   12.0110           0
      2153 MEMB     17       POPC     HX       HAL2     0.900000E-01   1.00800           0
      2154 MEMB     17       POPC     HY       HAL2     0.900000E-01   1.00800           0
      2155 MEMB     17       POPC     O31      OSL     -0.490000       15.9994           0
      2156 MEMB     17       POPC     C31      CL       0.900000       12.0110           0
      2157 MEMB     17       POPC     O32      OBL     -0.630000       15.9994           0
      2158 MEMB     17       POPC     C32      CTL2    -0.220000       12.0110           0
      2159 MEMB     17       POPC     H2X      HAL2     0.900000E-01   1.00800           0
      2160 MEMB     17       POPC     H2Y      HAL2     0.900000E-01   1.00800           0
      2161 MEMB     17       POPC     C23      CTL2    -0.180000       12.0110           0
      2162 MEMB     17       POPC     H3R      HAL2     0.900000E-01   1.00800           0
      2163 MEMB     17       POPC     H3S      HAL2     0.900000E-01   1.00800           0
      2164 MEMB     17       POPC     C24      CTL2    -0.180000       12.0110           0
      2165 MEMB     17       POPC     H4R      HAL2     0.900000E-01   1.00800           0
      2166 MEMB     17       POPC     H4S      HAL2     0.900000E-01   1.00800           0
      2167 MEMB     17       POPC     C25      CTL2    -0.180000       12.0110           0
      2168 MEMB     17       POPC     H5R      HAL2     0.900000E-01   1.00800           0
      2169 MEMB     17       POPC     H5S      HAL2     0.900000E-01   1.00800           0
      2170 MEMB     17       POPC     C26      CTL2    -0.180000       12.0110           0
      2171 MEMB     17       POPC     H6R      HAL2     0.900000E-01   1.00800           0
      2172 MEMB     17       POPC     H6S      HAL2     0.900000E-01   1.00800           0
      2173 MEMB     17       POPC     C27      CTL2    -0.180000       12.0110           0
      2174 MEMB     17       POPC     H7R      HAL2     0.900000E-01   1.00800           0
      2175 MEMB     17       POPC     H7S      HAL2     0.900000E-01   1.00800           0
      2176 MEMB     17       POPC     C28      CTL2    -0.180000       12.0110           0
      2177 MEMB     17       POPC     H8R      HAL2     0.900000E-01   1.00800           0
      2178 MEMB     17       POPC     H8S      HAL2     0.900000E-01   1.00800           0
      2179 MEMB     17       POPC     C29      CEL1    -0.150000       12.0110           0
      2180 MEMB     17       POPC     H91      HEL1     0.150000       1.00800           0
      2181 MEMB     17       POPC     C210     CEL1    -0.150000       12.0110           0
      2182 MEMB     17       POPC     H101     HEL1     0.150000       1.00800           0
      2183 MEMB     17       POPC     C211     CTL2    -0.180000       12.0110           0
      2184 MEMB     17       POPC     H11R     HAL2     0.900000E-01   1.00800           0
      2185 MEMB     17       POPC     H11S     HAL2     0.900000E-01   1.00800           0
      2186 MEMB     17       POPC     C212     CTL2    -0.180000       12.0110           0
      2187 MEMB     17       POPC     H12R     HAL2     0.900000E-01   1.00800           0
      2188 MEMB     17       POPC     H12S     HAL2     0.900000E-01   1.00800           0
      2189 MEMB     17       POPC     C213     CTL2    -0.180000       12.0110           0
      2190 MEMB     17       POPC     H13R     HAL2     0.900000E-01   1.00800           0
      2191 MEMB     17       POPC     H13S     HAL2     0.900000E-01   1.00800           0
      2192 MEMB     17       POPC     C214     CTL2    -0.180000       12.0110           0
      2193 MEMB     17       POPC     H14R     HAL2     0.900000E-01   1.00800           0
      2194 MEMB     17       POPC     H14S     HAL2     0.900000E-01   1.00800           0
      2195 MEMB     17       POPC     C215     CTL2    -0.180000       12.0110           0
      2196 MEMB     17       POPC     H15R     HAL2     0.900000E-01   1.00800           0
      2197 MEMB     17       POPC     H15S     HAL2     0.900000E-01   1.00800           0
      2198 MEMB     17       POPC     C216     CTL2    -0.180000       12.0110           0
      2199 MEMB     17       POPC     H16R     HAL2     0.900000E-01   1.00800           0
      2200 MEMB     17       POPC     H16S     HAL2     0.900000E-01   1.00800           0
      2201 MEMB     17       POPC     C217     CTL2    -0.180000       12.0110           0
      2202 MEMB     17       POPC     H17R     HAL2     0.900000E-01   1.00800           0
      2203 MEMB     17       POPC     H17S     HAL2     0.900000E-01   1.00800           0
      2204 MEMB     17       POPC     C218     CTL3    -0.270000       12.0110           0
      2205 MEMB     17       POPC     H18R     HAL3     0.900000E-01   1.00800           0
      2206 MEMB     17       POPC     H18S     HAL3     0.900000E-01   1.00800           0
      2207 MEMB     17       POPC     H18T     HAL3     0.900000E-01   1.00800           0
      2208 MEMB     17       POPC     C33      CTL2    -0.180000       12.0110           0
      2209 MEMB     17       POPC     H3X      HAL2     0.900000E-01   1.00800           0
      2210 MEMB     17       POPC     H3Y      HAL2     0.900000E-01   1.00800           0
      2211 MEMB     17       POPC     C34      CTL2    -0.180000       12.0110           0
      2212 MEMB     17       POPC     H4X      HAL2     0.900000E-01   1.00800           0
      2213 MEMB     17       POPC     H4Y      HAL2     0.900000E-01   1.00800           0
      2214 MEMB     17       POPC     C35      CTL2    -0.180000       12.0110           0
      2215 MEMB     17       POPC     H5X      HAL2     0.900000E-01   1.00800           0
      2216 MEMB     17       POPC     H5Y      HAL2     0.900000E-01   1.00800           0
      2217 MEMB     17       POPC     C36      CTL2    -0.180000       12.0110           0
      2218 MEMB     17       POPC     H6X      HAL2     0.900000E-01   1.00800           0
      2219 MEMB     17       POPC     H6Y      HAL2     0.900000E-01   1.00800           0
      2220 MEMB     17       POPC     C37      CTL2    -0.180000       12.0110           0
      2221 MEMB     17       POPC     H7X      HAL2     0.900000E-01   1.00800           0
      2222 MEMB     17       POPC     H7Y      HAL2     0.900000E-01   1.00800           0
      2223 MEMB     17       POPC     C38      CTL2    -0.180000       12.0110           0
      2224 MEMB     17       POPC     H8X      HAL2     0.900000E-01   1.00800           0
      2225 MEMB     17       POPC     H8Y      HAL2     0.900000E-01   1.00800           0
      2226 MEMB     17       POPC     C39      CTL2    -0.180000       12.0110           0
      2227 MEMB     17       POPC     H9X      HAL2     0.900000E-01   1.00800           0
      2228 MEMB     17       POPC     H9Y      HAL2     0.900000E-01   1.00800           0
      2229 MEMB     17       POPC     C310     CTL2    -0.180000       12.0110           0
      2230 MEMB     17       POPC     H10X     HAL2     0.900000E-01   1.00800           0
      2231 MEMB     17       POPC     H10Y     HAL2     0.900000E-01   1.00800           0
      2232 MEMB     17       POPC     C311     CTL2    -0.180000       12.0110           0
      2233 MEMB     17       POPC     H11X     HAL2     0.900000E-01   1.00800           0
      2234 MEMB     17       POPC     H11Y     HAL2     0.900000E-01   1.00800           0
      2235 MEMB     17       POPC     C312     CTL2    -0.180000       12.0110           0
      2236 MEMB     17       POPC     H12X     HAL2     0.900000E-01   1.00800           0
      2237 MEMB     17       POPC     H12Y     HAL2     0.900000E-01   1.00800           0
      2238 MEMB     17       POPC     C313     CTL2    -0.180000       12.0110           0
      2239 MEMB     17       POPC     H13X     HAL2     0.900000E-01   1.00800           0
      2240 MEMB     17       POPC     H13Y     HAL2     0.900000E-01   1.00800           0
      2241 MEMB     17       POPC     C314     CTL2    -0.180000       12.0110           0
      2242 MEMB     17       POPC     H14X     HAL2     0.900000E-01   1.00800           0
      2243 MEMB     17       POPC     H14Y     HAL2     0.900000E-01   1.00800           0
      2244 MEMB     17       POPC     C315     CTL2    -0.180000       12.0110           0
      2245 MEMB     17       POPC     H15X     HAL2     0.900000E-01   1.00800           0
      2246 MEMB     17       POPC     H15Y     HAL2     0.900000E-01   1.00800           0
      2247 MEMB     17       POPC     C316     CTL3    -0.270000       12.0110           0
      2248 MEMB     17       POPC     H16X     HAL3     0.900000E-01   1.00800           0
      2249 MEMB     17       POPC     H16Y     HAL3     0.900000E-01   1.00800           0
      2250 MEMB     17       POPC     H16Z     HAL3     0.900000E-01   1.00800           0
      2251 MEMB     18       POPC     N        NTL     -0.600000       14.0070           0
      2252 MEMB     18       POPC     C12      CTL2    -0.100000       12.0110           0
      2253 MEMB     18       POPC     H12A     HL       0.250000       1.00800           0
      2254 MEMB     18       POPC     H12B     HL       0.250000       1.00800           0
      2255 MEMB     18       POPC     C13      CTL5    -0.350000       12.0110           0
      2256 MEMB     18       POPC     H13A     HL       0.250000       1.00800           0
      2257 MEMB     18       POPC     H13B     HL       0.250000       1.00800           0
      2258 MEMB     18       POPC     H13C     HL       0.250000       1.00800           0
      2259 MEMB     18       POPC     C14      CTL5    -0.350000       12.0110           0
      2260 MEMB     18       POPC     H14A     HL       0.250000       1.00800           0
      2261 MEMB     18       POPC     H14B     HL       0.250000       1.00800           0
      2262 MEMB     18       POPC     H14C     HL       0.250000       1.00800           0
      2263 MEMB     18       POPC     C15      CTL5    -0.350000       12.0110           0
      2264 MEMB     18       POPC     H15A     HL       0.250000       1.00800           0
      2265 MEMB     18       POPC     H15B     HL       0.250000       1.00800           0
      2266 MEMB     18       POPC     H15C     HL       0.250000       1.00800           0
      2267 MEMB     18       POPC     C11      CTL2    -0.800000E-01   12.0110           0
      2268 MEMB     18       POPC     H11A     HAL2     0.900000E-01   1.00800           0
      2269 MEMB     18       POPC     H11B     HAL2     0.900000E-01   1.00800           0
      2270 MEMB     18       POPC     P        PL        1.50000       30.9740           0
      2271 MEMB     18       POPC     O13      O2L     -0.780000       15.9994           0
      2272 MEMB     18       POPC     O14      O2L     -0.780000       15.9994           0
      2273 MEMB     18       POPC     O12      OSLP    -0.570000       15.9994           0
      2274 MEMB     18       POPC     O11      OSLP    -0.570000       15.9994           0
      2275 MEMB     18       POPC     C1       CTL2    -0.800000E-01   12.0110           0
      2276 MEMB     18       POPC     HA       HAL2     0.900000E-01   1.00800           0
      2277 MEMB     18       POPC     HB       HAL2     0.900000E-01   1.00800           0
      2278 MEMB     18       POPC     C2       CTL1     0.170000       12.0110           0
      2279 MEMB     18       POPC     HS       HAL1     0.900000E-01   1.00800           0
      2280 MEMB     18       POPC     O21      OSL     -0.490000       15.9994           0
      2281 MEMB     18       POPC     C21      CL       0.900000       12.0110           0
      2282 MEMB     18       POPC     O22      OBL     -0.630000       15.9994           0
      2283 MEMB     18       POPC     C22      CTL2    -0.220000       12.0110           0
      2284 MEMB     18       POPC     H2R      HAL2     0.900000E-01   1.00800           0
      2285 MEMB     18       POPC     H2S      HAL2     0.900000E-01   1.00800           0
      2286 MEMB     18       POPC     C3       CTL2     0.800000E-01   12.0110           0
      2287 MEMB     18       POPC     HX       HAL2     0.900000E-01   1.00800           0
      2288 MEMB     18       POPC     HY       HAL2     0.900000E-01   1.00800           0
      2289 MEMB     18       POPC     O31      OSL     -0.490000       15.9994           0
      2290 MEMB     18       POPC     C31      CL       0.900000       12.0110           0
      2291 MEMB     18       POPC     O32      OBL     -0.630000       15.9994           0
      2292 MEMB     18       POPC     C32      CTL2    -0.220000       12.0110           0
      2293 MEMB     18       POPC     H2X      HAL2     0.900000E-01   1.00800           0
      2294 MEMB     18       POPC     H2Y      HAL2     0.900000E-01   1.00800           0
      2295 MEMB     18       POPC     C23      CTL2    -0.180000       12.0110           0
      2296 MEMB     18       POPC     H3R      HAL2     0.900000E-01   1.00800           0
      2297 MEMB     18       POPC     H3S      HAL2     0.900000E-01   1.00800           0
      2298 MEMB     18       POPC     C24      CTL2    -0.180000       12.0110           0
      2299 MEMB     18       POPC     H4R      HAL2     0.900000E-01   1.00800           0
      2300 MEMB     18       POPC     H4S      HAL2     0.900000E-01   1.00800           0
      2301 MEMB     18       POPC     C25      CTL2    -0.180000       12.0110           0
      2302 MEMB     18       POPC     H5R      HAL2     0.900000E-01   1.00800           0
      2303 MEMB     18       POPC     H5S      HAL2     0.900000E-01   1.00800           0
      2304 MEMB     18       POPC     C26      CTL2    -0.180000       12.0110           0
      2305 MEMB     18       POPC     H6R      HAL2     0.900000E-01   1.00800           0
      2306 MEMB     18       POPC     H6S      HAL2     0.900000E-01   1.00800           0
      2307 MEMB     18       POPC     C27      CTL2    -0.180000       12.0110           0
      2308 MEMB     18       POPC     H7R      HAL2     0.900000E-01   1.00800           0
      2309 MEMB     18       POPC     H7S      HAL2     0.900000E-01   1.00800           0
      2310 MEMB     18       POPC     C28      CTL2    -0.180000       12.0110           0
      2311 MEMB     18       POPC     H8R      HAL2     0.900000E-01   1.00800           0
      2312 MEMB     18       POPC     H8S      HAL2     0.900000E-01   1.00800           0
      2313 MEMB     18       POPC     C29      CEL1    -0.150000       12.0110           0
      2314 MEMB     18       POPC     H91      HEL1     0.150000       1.00800           0
      2315 MEMB     18       POPC     C210     CEL1    -0.150000       12.0110           0
      2316 MEMB     18       POPC     H101     HEL1     0.150000       1.00800           0
      2317 MEMB     18       POPC     C211     CTL2    -0.180000       12.0110           0
      2318 MEMB     18       POPC     H11R     HAL2     0.900000E-01   1.00800           0
      2319 MEMB     18       POPC     H11S     HAL2     0.900000E-01   1.00800           0
      2320 MEMB     18       POPC     C212     CTL2    -0.180000       12.0110           0
      2321 MEMB     18       POPC     H12R     HAL2     0.900000E-01   1.00800           0
      2322 MEMB     18       POPC     H12S     HAL2     0.900000E-01   1.00800           0
      2323 MEMB     18       POPC     C213     CTL2    -0.180000       12.0110           0
      2324 MEMB     18       POPC     H13R     HAL2     0.900000E-01   1.00800           0
      2325 MEMB     18       POPC     H13S     HAL2     0.900000E-01   1.00800           0
      2326 MEMB     18       POPC     C214     CTL2    -0.180000       12.0110           0
      2327 MEMB     18       POPC     H14R     HAL2     0.900000E-01   1.00800           0
      2328 MEMB     18       POPC     H14S     HAL2     0.900000E-01   1.00800           0
      2329 MEMB     18       POPC     C215     CTL2    -0.180000       12.0110           0
      2330 MEMB     18       POPC     H15R     HAL2     0.900000E-01   1.00800           0
      2331 MEMB     18       POPC     H15S     HAL2     0.900000E-01   1.00800           0
      2332 MEMB     18       POPC     C216     CTL2    -0.180000       12.0110           0
      2333 MEMB     18       POPC     H16R     HAL2     0.900000E-01   1.00800           0
      2334 MEMB     18       POPC     H16S     HAL2     0.900000E-01   1.00800           0
      2335 MEMB     18       POPC     C217     CTL2    -0.180000       12.0110           0
      2336 MEMB     18       POPC     H17R     HAL2     0.900000E-01   1.00800           0
      2337 MEMB     18       POPC     H17S     HAL2     0.900000E-01   1.00800           0
      2338 MEMB     18       POPC     C218     CTL3    -0.270000       12.0110           0
      2339 MEMB     18       POPC     H18R     HAL3     0.900000E-01   1.00800           0
      2340 MEMB     18       POPC     H18S     HAL3     0.900000E-01   1.00800           0
      2341 MEMB     18       POPC     H18T     HAL3     0.900000E-01   1.00800           0
      2342 MEMB     18       POPC     C33      CTL2    -0.180000       12.0110           0
      2343 MEMB     18       POPC     H3X      HAL2     0.900000E-01   1.00800           0
      2344 MEMB     18       POPC     H3Y      HAL2     0.900000E-01   1.00800           0
      2345 MEMB     18       POPC     C34      CTL2    -0.180000       12.0110           0
      2346 MEMB     18       POPC     H4X      HAL2     0.900000E-01   1.00800           0
      2347 MEMB     18       POPC     H4Y      HAL2     0.900000E-01   1.00800           0
      2348 MEMB     18       POPC     C35      CTL2    -0.180000       12.0110           0
      2349 MEMB     18       POPC     H5X      HAL2     0.900000E-01   1.00800           0
      2350 MEMB     18       POPC     H5Y      HAL2     0.900000E-01   1.00800           0
      2351 MEMB     18       POPC     C36      CTL2    -0.180000       12.0110           0
      2352 MEMB     18       POPC     H6X      HAL2     0.900000E-01   1.00800           0
      2353 MEMB     18       POPC     H6Y      HAL2     0.900000E-01   1.00800           0
      2354 MEMB     18       POPC     C37      CTL2    -0.180000       12.0110           0
      2355 MEMB     18       POPC     H7X      HAL2     0.900000E-01   1.00800           0
      2356 MEMB     18       POPC     H7Y      HAL2     0.900000E-01   1.00800           0
      2357 MEMB     18       POPC     C38      CTL2    -0.180000       12.0110           0
      2358 MEMB     18       POPC     H8X      HAL2     0.900000E-01   1.00800           0
      2359 MEMB     18       POPC     H8Y      HAL2     0.900000E-01   1.00800           0
      2360 MEMB     18       POPC     C39      CTL2    -0.180000       12.0110           0
      2361 MEMB     18       POPC     H9X      HAL2     0.900000E-01   1.00800           0
      2362 MEMB     18       POPC     H9Y      HAL2     0.900000E-01   1.00800           0
      2363 MEMB     18       POPC     C310     CTL2    -0.180000       12.0110           0
      2364 MEMB     18       POPC     H10X     HAL2     0.900000E-01   1.00800           0
      2365 MEMB     18       POPC     H10Y     HAL2     0.900000E-01   1.00800           0
      2366 MEMB     18       POPC     C311     CTL2    -0.180000       12.0110           0
      2367 MEMB     18       POPC     H11X     HAL2     0.900000E-01   1.00800           0
      2368 MEMB     18       POPC     H11Y     HAL2     0.900000E-01   1.00800           0
      2369 MEMB     18       POPC     C312     CTL2    -0.180000       12.0110           0
      2370 MEMB     18       POPC     H12X     HAL2     0.900000E-01   1.00800           0
      2371 MEMB     18       POPC     H12Y     HAL2     0.900000E-01   1.00800           0
      2372 MEMB     18       POPC     C313     CTL2    -0.180000       12.0110           0
      2373 MEMB     18       POPC     H13X     HAL2     0.900000E-01   1.00800           0
      2374 MEMB     18       POPC     H13Y     HAL2     0.900000E-01   1.00800           0
      2375 MEMB     18       POPC     C314     CTL2    -0.180000       12.0110           0
      2376 MEMB     18       POPC     H14X     HAL2     0.900000E-01   1.00800           0
      2377 MEMB     18       POPC     H14Y     HAL2     0.900000E-01   1.00800           0
      2378 MEMB     18       POPC     C315     CTL2    -0.180000       12.0110           0
      2379 MEMB     18       POPC     H15X     HAL2     0.900000E-01   1.00800           0
      2380 MEMB     18       POPC     H15Y     HAL2     0.900000E-01   1.00800           0
      2381 MEMB     18       POPC     C316     CTL3    -0.270000       12.0110           0
      2382 MEMB     18       POPC     H16X     HAL3     0.900000E-01   1.00800           0
      2383 MEMB     18       POPC     H16Y     HAL3     0.900000E-01   1.00800           0
      2384 MEMB     18       POPC     H16Z     HAL3     0.900000E-01   1.00800           0
      2385 MEMB     19       POPC     N        NTL     -0.600000       14.0070           0
      2386 MEMB     19       POPC     C12      CTL2    -0.100000       12.0110           0
      2387 MEMB     19       POPC     H12A     HL       0.250000       1.00800           0
      2388 MEMB     19       POPC     H12B     HL       0.250000       1.00800           0
      2389 MEMB     19       POPC     C13      CTL5    -0.350000       12.0110           0
      2390 MEMB     19       POPC     H13A     HL       0.250000       1.00800           0
      2391 MEMB     19       POPC     H13B     HL       0.250000       1.00800           0
      2392 MEMB     19       POPC     H13C     HL       0.250000       1.00800           0
      2393 MEMB     19       POPC     C14      CTL5    -0.350000       12.0110           0
      2394 MEMB     19       POPC     H14A     HL       0.250000       1.00800           0
      2395 MEMB     19       POPC     H14B     HL       0.250000       1.00800           0
      2396 MEMB     19       POPC     H14C     HL       0.250000       1.00800           0
      2397 MEMB     19       POPC     C15      CTL5    -0.350000       12.0110           0
      2398 MEMB     19       POPC     H15A     HL       0.250000       1.00800           0
      2399 MEMB     19       POPC     H15B     HL       0.250000       1.00800           0
      2400 MEMB     19       POPC     H15C     HL       0.250000       1.00800           0
      2401 MEMB     19       POPC     C11      CTL2    -0.800000E-01   12.0110           0
      2402 MEMB     19       POPC     H11A     HAL2     0.900000E-01   1.00800           0
      2403 MEMB     19       POPC     H11B     HAL2     0.900000E-01   1.00800           0
      2404 MEMB     19       POPC     P        PL        1.50000       30.9740           0
      2405 MEMB     19       POPC     O13      O2L     -0.780000       15.9994           0
      2406 MEMB     19       POPC     O14      O2L     -0.780000       15.9994           0
      2407 MEMB     19       POPC     O12      OSLP    -0.570000       15.9994           0
      2408 MEMB     19       POPC     O11      OSLP    -0.570000       15.9994           0
      2409 MEMB     19       POPC     C1       CTL2    -0.800000E-01   12.0110           0
      2410 MEMB     19       POPC     HA       HAL2     0.900000E-01   1.00800           0
      2411 MEMB     19       POPC     HB       HAL2     0.900000E-01   1.00800           0
      2412 MEMB     19       POPC     C2       CTL1     0.170000       12.0110           0
      2413 MEMB     19       POPC     HS       HAL1     0.900000E-01   1.00800           0
      2414 MEMB     19       POPC     O21      OSL     -0.490000       15.9994           0
      2415 MEMB     19       POPC     C21      CL       0.900000       12.0110           0
      2416 MEMB     19       POPC     O22      OBL     -0.630000       15.9994           0
      2417 MEMB     19       POPC     C22      CTL2    -0.220000       12.0110           0
      2418 MEMB     19       POPC     H2R      HAL2     0.900000E-01   1.00800           0
      2419 MEMB     19       POPC     H2S      HAL2     0.900000E-01   1.00800           0
      2420 MEMB     19       POPC     C3       CTL2     0.800000E-01   12.0110           0
      2421 MEMB     19       POPC     HX       HAL2     0.900000E-01   1.00800           0
      2422 MEMB     19       POPC     HY       HAL2     0.900000E-01   1.00800           0
      2423 MEMB     19       POPC     O31      OSL     -0.490000       15.9994           0
      2424 MEMB     19       POPC     C31      CL       0.900000       12.0110           0
      2425 MEMB     19       POPC     O32      OBL     -0.630000       15.9994           0
      2426 MEMB     19       POPC     C32      CTL2    -0.220000       12.0110           0
      2427 MEMB     19       POPC     H2X      HAL2     0.900000E-01   1.00800           0
      2428 MEMB     19       POPC     H2Y      HAL2     0.900000E-01   1.00800           0
      2429 MEMB     19       POPC     C23      CTL2    -0.180000       12.0110           0
      2430 MEMB     19       POPC     H3R      HAL2     0.900000E-01   1.00800           0
      2431 MEMB     19       POPC     H3S      HAL2     0.900000E-01   1.00800           0
      2432 MEMB     19       POPC     C24      CTL2    -0.180000       12.0110           0
      2433 MEMB     19       POPC     H4R      HAL2     0.900000E-01   1.00800           0
      2434 MEMB     19       POPC     H4S      HAL2     0.900000E-01   1.00800           0
      2435 MEMB     19       POPC     C25      CTL2    -0.180000       12.0110           0
      2436 MEMB     19       POPC     H5R      HAL2     0.900000E-01   1.00800           0
      2437 MEMB     19       POPC     H5S      HAL2     0.900000E-01   1.00800           0
      2438 MEMB     19       POPC     C26      CTL2    -0.180000       12.0110           0
      2439 MEMB     19       POPC     H6R      HAL2     0.900000E-01   1.00800           0
      2440 MEMB     19       POPC     H6S      HAL2     0.900000E-01   1.00800           0
      2441 MEMB     19       POPC     C27      CTL2    -0.180000       12.0110           0
      2442 MEMB     19       POPC     H7R      HAL2     0.900000E-01   1.00800           0
      2443 MEMB     19       POPC     H7S      HAL2     0.900000E-01   1.00800           0
      2444 MEMB     19       POPC     C28      CTL2    -0.180000       12.0110           0
      2445 MEMB     19       POPC     H8R      HAL2     0.900000E-01   1.00800           0
      2446 MEMB     19       POPC     H8S      HAL2     0.900000E-01   1.00800           0
      2447 MEMB     19       POPC     C29      CEL1    -0.150000       12.0110           0
      2448 MEMB     19       POPC     H91      HEL1     0.150000       1.00800           0
      2449 MEMB     19       POPC     C210     CEL1    -0.150000       12.0110           0
      2450 MEMB     19       POPC     H101     HEL1     0.150000       1.00800           0
      2451 MEMB     19       POPC     C211     CTL2    -0.180000       12.0110           0
      2452 MEMB     19       POPC     H11R     HAL2     0.900000E-01   1.00800           0
      2453 MEMB     19       POPC     H11S     HAL2     0.900000E-01   1.00800           0
      2454 MEMB     19       POPC     C212     CTL2    -0.180000       12.0110           0
      2455 MEMB     19       POPC     H12R     HAL2     0.900000E-01   1.00800           0
      2456 MEMB     19       POPC     H12S     HAL2     0.900000E-01   1.00800           0
      2457 MEMB     19       POPC     C213     CTL2    -0.180000       12.0110           0
      2458 MEMB     19       POPC     H13R     HAL2     0.900000E-01   1.00800           0
      2459 MEMB     19       POPC     H13S     HAL2     0.900000E-01   1.00800           0
      2460 MEMB     19       POPC     C214     CTL2    -0.180000       12.0110           0
      2461 MEMB     19       POPC     H14R     HAL2     0.900000E-01   1.00800           0
      2462 MEMB     19       POPC     H14S     HAL2     0.900000E-01   1.00800           0
      2463 MEMB     19       POPC     C215     CTL2    -0.180000       12.0110           0
      2464 MEMB     19       POPC     H15R     HAL2     0.900000E-01   1.00800           0
      2465 MEMB     19       POPC     H15S     HAL2     0.900000E-01   1.00800           0
      2466 MEMB     19       POPC     C216     CTL2    -0.180000       12.0110           0
      2467 MEMB     19       POPC     H16R     HAL2     0.900000E-01   1.00800           0
      2468 MEMB     19       POPC     H16S     HAL2     0.900000E-01   1.00800           0
      2469 MEMB     19       POPC     C217     CTL2    -0.180000       12.0110           0
      2470 MEMB     19       POPC     H17R     HAL2     0.900000E-01   1.00800           0
      2471 MEMB     19       POPC     H17S     HAL2     0.900000E-01   1.00800           0
      2472 MEMB     19       POPC     C218     CTL3    -0.270000       12.0110           0
      2473 MEMB     19       POPC     H18R     HAL3     0.900000E-01   1.00800           0
      2474 MEMB     19       POPC     H18S     HAL3     0.900000E-01   1.00800           0
      2475 MEMB     19       POPC     H18T     HAL3     0.900000E-01   1.00800           0
      2476 MEMB     19       POPC     C33      CTL2    -0.180000       12.0110           0
      2477 MEMB     19       POPC     H3X      HAL2     0.900000E-01   1.00800           0
      2478 MEMB     19       POPC     H3Y      HAL2     0.900000E-01   1.00800           0
      2479 MEMB     19       POPC     C34      CTL2    -0.180000       12.0110           0
      2480 MEMB     19       POPC     H4X      HAL2     0.900000E-01   1.00800           0
      2481 MEMB     19       POPC     H4Y      HAL2     0.900000E-01   1.00800           0
      2482 MEMB     19       POPC     C35      CTL2    -0.180000       12.0110           0
      2483 MEMB     19       POPC     H5X      HAL2     0.900000E-01   1.00800           0
      2484 MEMB     19       POPC     H5Y      HAL2     0.900000E-01   1.00800           0
      2485 MEMB     19       POPC     C36      CTL2    -0.180000       12.0110           0
      2486 MEMB     19       POPC     H6X      HAL2     0.900000E-01   1.00800           0
      2487 MEMB     19       POPC     H6Y      HAL2     0.900000E-01   1.00800           0
      2488 MEMB     19       POPC     C37      CTL2    -0.180000       12.0110           0
      2489 MEMB     19       POPC     H7X      HAL2     0.900000E-01   1.00800           0
      2490 MEMB     19       POPC     H7Y      HAL2     0.900000E-01   1.00800           0
      2491 MEMB     19       POPC     C38      CTL2    -0.180000       12.0110           0
      2492 MEMB     19       POPC     H8X      HAL2     0.900000E-01   1.00800           0
      2493 MEMB     19       POPC     H8Y      HAL2     0.900000E-01   1.00800           0
      2494 MEMB     19       POPC     C39      CTL2    -0.180000       12.0110           0
      2495 MEMB     19       POPC     H9X      HAL2     0.900000E-01   1.00800           0
      2496 MEMB     19       POPC     H9Y      HAL2     0.900000E-01   1.00800           0
      2497 MEMB     19       POPC     C310     CTL2    -0.180000       12.0110           0
      2498 MEMB     19       POPC     H10X     HAL2     0.900000E-01   1.00800           0
      2499 MEMB     19       POPC     H10Y     HAL2     0.900000E-01   1.00800           0
      2500 MEMB     19       POPC     C311     CTL2    -0.180000       12.0110           0
      2501 MEMB     19       POPC     H11X     HAL2     0.900000E-01   1.00800           0
      2502 MEMB     19       POPC     H11Y     HAL2     0.900000E-01   1.00800           0
      2503 MEMB     19       POPC     C312     CTL2    -0.180000       12.0110           0
      2504 MEMB     19       POPC     H12X     HAL2     0.900000E-01   1.00800           0
      2505 MEMB     19       POPC     H12Y     HAL2     0.900000E-01   1.00800           0
      2506 MEMB     19       POPC     C313     CTL2    -0.180000       12.0110           0
      2507 MEMB     19       POPC     H13X     HAL2     0.900000E-01   1.00800           0
      2508 MEMB     19       POPC     H13Y     HAL2     0.900000E-01   1.00800           0
      2509 MEMB     19       POPC     C314     CTL2    -0.180000       12.0110           0
      2510 MEMB     19       POPC     H14X     HAL2     0.900000E-01   1.00800           0
      2511 MEMB     19       POPC     H14Y     HAL2     0.900000E-01   1.00800           0
      2512 MEMB     19       POPC     C315     CTL2    -0.180000       12.0110           0
      2513 MEMB     19       POPC     H15X     HAL2     0.900000E-01   1.00800           0
      2514 MEMB     19       POPC     H15Y     HAL2     0.900000E-01   1.00800           0
      2515 MEMB     19       POPC     C316     CTL3    -0.270000       12.0110           0
      2516 MEMB     19       POPC     H16X     HAL3     0.900000E-01   1.00800           0
      2517 MEMB     19       POPC     H16Y     HAL3     0.900000E-01   1.00800           0
      2518 MEMB     19       POPC     H16Z     HAL3     0.900000E-01   1.00800           0
      2519 MEMB     20       POPC     N        NTL     -0.600000       14.0070           0
      2520 MEMB     20       POPC     C12      CTL2    -0.100000       12.0110           0
      2521 MEMB     20       POPC     H12A     HL       0.250000       1.00800           0
      2522 MEMB     20       POPC     H12B     HL       0.250000       1.00800           0
      2523 MEMB     20       POPC     C13      CTL5    -0.350000       12.0110           0
      2524 MEMB     20       POPC     H13A     HL       0.250000       1.00800           0
      2525 MEMB     20       POPC     H13B     HL       0.250000       1.00800           0
      2526 MEMB     20       POPC     H13C     HL       0.250000       1.00800           0
      2527 MEMB     20       POPC     C14      CTL5    -0.350000       12.0110           0
      2528 MEMB     20       POPC     H14A     HL       0.250000       1.00800           0
      2529 MEMB     20       POPC     H14B     HL       0.250000       1.00800           0
      2530 MEMB     20       POPC     H14C     HL       0.250000       1.00800           0
      2531 MEMB     20       POPC     C15      CTL5    -0.350000       12.0110           0
      2532 MEMB     20       POPC     H15A     HL       0.250000       1.00800           0
      2533 MEMB     20       POPC     H15B     HL       0.250000       1.00800           0
      2534 MEMB     20       POPC     H15C     HL       0.250000       1.00800           0
      2535 MEMB     20       POPC     C11      CTL2    -0.800000E-01   12.0110           0
      2536 MEMB     20       POPC     H11A     HAL2     0.900000E-01   1.00800           0
      2537 MEMB     20       POPC     H11B     HAL2     0.900000E-01   1.00800           0
      2538 MEMB     20       POPC     P        PL        1.50000       30.9740           0
      2539 MEMB     20       POPC     O13      O2L     -0.780000       15.9994           0
      2540 MEMB     20       POPC     O14      O2L     -0.780000       15.9994           0
      2541 MEMB     20       POPC     O12      OSLP    -0.570000       15.9994           0
      2542 MEMB     20       POPC     O11      OSLP    -0.570000       15.9994           0
      2543 MEMB     20       POPC     C1       CTL2    -0.800000E-01   12.0110           0
      2544 MEMB     20       POPC     HA       HAL2     0.900000E-01   1.00800           0
      2545 MEMB     20       POPC     HB       HAL2     0.900000E-01   1.00800           0
      2546 MEMB     20       POPC     C2       CTL1     0.170000       12.0110           0
      2547 MEMB     20       POPC     HS       HAL1     0.900000E-01   1.00800           0
      2548 MEMB     20       POPC     O21      OSL     -0.490000       15.9994           0
      2549 MEMB     20       POPC     C21      CL       0.900000       12.0110           0
      2550 MEMB     20       POPC     O22      OBL     -0.630000       15.9994           0
      2551 MEMB     20       POPC     C22      CTL2    -0.220000       12.0110           0
      2552 MEMB     20       POPC     H2R      HAL2     0.900000E-01   1.00800           0
      2553 MEMB     20       POPC     H2S      HAL2     0.900000E-01   1.00800           0
      2554 MEMB     20       POPC     C3       CTL2     0.800000E-01   12.0110           0
      2555 MEMB     20       POPC     HX       HAL2     0.900000E-01   1.00800           0
      2556 MEMB     20       POPC     HY       HAL2     0.900000E-01   1.00800           0
      2557 MEMB     20       POPC     O31      OSL     -0.490000       15.9994           0
      2558 MEMB     20       POPC     C31      CL       0.900000       12.0110           0
      2559 MEMB     20       POPC     O32      OBL     -0.630000       15.9994           0
      2560 MEMB     20       POPC     C32      CTL2    -0.220000       12.0110           0
      2561 MEMB     20       POPC     H2X      HAL2     0.900000E-01   1.00800           0
      2562 MEMB     20       POPC     H2Y      HAL2     0.900000E-01   1.00800           0
      2563 MEMB     20       POPC     C23      CTL2    -0.180000       12.0110           0
      2564 MEMB     20       POPC     H3R      HAL2     0.900000E-01   1.00800           0
      2565 MEMB     20       POPC     H3S      HAL2     0.900000E-01   1.00800           0
      2566 MEMB     20       POPC     C24      CTL2    -0.180000       12.0110           0
      2567 MEMB     20       POPC     H4R      HAL2     0.900000E-01   1.00800           0
      2568 MEMB     20       POPC     H4S      HAL2     0.900000E-01   1.00800           0
      2569 MEMB     20       POPC     C25      CTL2    -0.180000       12.0110           0
      2570 MEMB     20       POPC     H5R      HAL2     0.900000E-01   1.00800           0
      2571 MEMB     20       POPC     H5S      HAL2     0.900000E-01   1.00800           0
      2572 MEMB     20       POPC     C26      CTL2    -0.180000       12.0110           0
      2573 MEMB     20       POPC     H6R      HAL2     0.900000E-01   1.00800           0
      2574 MEMB     20       POPC     H6S      HAL2     0.900000E-01   1.00800           0
      2575 MEMB     20       POPC     C27      CTL2    -0.180000       12.0110           0
      2576 MEMB     20       POPC     H7R      HAL2     0.900000E-01   1.00800           0
      2577 MEMB     20       POPC     H7S      HAL2     0.900000E-01   1.00800           0
      2578 MEMB     20       POPC     C28      CTL2    -0.180000       12.0110           0
      2579 MEMB     20       POPC     H8R      HAL2     0.900000E-01   1.00800           0
      2580 MEMB     20       POPC     H8S      HAL2     0.900000E-01   1.00800           0
      2581 MEMB     20       POPC     C29      CEL1    -0.150000       12.0110           0
      2582 MEMB     20       POPC     H91      HEL1     0.150000       1.00800           0
      2583 MEMB     20       POPC     C210     CEL1    -0.150000       12.0110           0
      2584 MEMB     20       POPC     H101     HEL1     0.150000       1.00800           0
      2585 MEMB     20       POPC     C211     CTL2    -0.180000       12.0110           0
      2586 MEMB     20       POPC     H11R     HAL2     0.900000E-01   1.00800           0
      2587 MEMB     20       POPC     H11S     HAL2     0.900000E-01   1.00800           0
      2588 MEMB     20       POPC     C212     CTL2    -0.180000       12.0110           0
      2589 MEMB     20       POPC     H12R     HAL2     0.900000E-01   1.00800           0
      2590 MEMB     20       POPC     H12S     HAL2     0.900000E-01   1.00800           0
      2591 MEMB     20       POPC     C213     CTL2    -0.180000       12.0110           0
      2592 MEMB     20       POPC     H13R     HAL2     0.900000E-01   1.00800           0
      2593 MEMB     20       POPC     H13S     HAL2     0.900000E-01   1.00800           0
      2594 MEMB     20       POPC     C214     CTL2    -0.180000       12.0110           0
      2595 MEMB     20       POPC     H14R     HAL2     0.900000E-01   1.00800           0
      2596 MEMB     20       POPC     H14S     HAL2     0.900000E-01   1.00800           0
      2597 MEMB     20       POPC     C215     CTL2    -0.180000       12.0110           0
      2598 MEMB     20       POPC     H15R     HAL2     0.900000E-01   1.00800           0
      2599 MEMB     20       POPC     H15S     HAL2     0.900000E-01   1.00800           0
      2600 MEMB     20       POPC     C216     CTL2    -0.180000       12.0110           0
      2601 MEMB     20       POPC     H16R     HAL2     0.900000E-01   1.00800           0
      2602 MEMB     20       POPC     H16S     HAL2     0.900000E-01   1.00800           0
      2603 MEMB     20       POPC     C217     CTL2    -0.180000       12.0110           0
      2604 MEMB     20       POPC     H17R     HAL2     0.900000E-01   1.00800           0
      2605 MEMB     20       POPC     H17S     HAL2     0.900000E-01   1.00800           0
      2606 MEMB     20       POPC     C218     CTL3    -0.270000       12.0110           0
      2607 MEMB     20       POPC     H18R     HAL3     0.900000E-01   1.00800           0
      2608 MEMB     20       POPC     H18S     HAL3     0.900000E-01   1.00800           0
      2609 MEMB     20       POPC     H18T     HAL3     0.900000E-01   1.00800           0
      2610 MEMB     20       POPC     C33      CTL2    -0.180000       12.0110           0
      2611 MEMB     20       POPC     H3X      HAL2     0.900000E-01   1.00800           0
      2612 MEMB     20       POPC     H3Y      HAL2     0.900000E-01   1.00800           0
      2613 MEMB     20       POPC     C34      CTL2    -0.180000       12.0110           0
      2614 MEMB     20       POPC     H4X      HAL2     0.900000E-01   1.00800           0
      2615 MEMB     20       POPC     H4Y      HAL2     0.900000E-01   1.00800           0
      2616 MEMB     20       POPC     C35      CTL2    -0.180000       12.0110           0
      2617 MEMB     20       POPC     H5X      HAL2     0.900000E-01   1.00800           0
      2618 MEMB     20       POPC     H5Y      HAL2     0.900000E-01   1.00800           0
      2619 MEMB     20       POPC     C36      CTL2    -0.180000       12.0110           0
      2620 MEMB     20       POPC     H6X      HAL2     0.900000E-01   1.00800           0
      2621 MEMB     20       POPC     H6Y      HAL2     0.900000E-01   1.00800           0
      2622 MEMB     20       POPC     C37      CTL2    -0.180000       12.0110           0
      2623 MEMB     20       POPC     H7X      HAL2     0.900000E-01   1.00800           0
      2624 MEMB     20       POPC     H7Y      HAL2     0.900000E-01   1.00800           0
      2625 MEMB     20       POPC     C38      CTL2    -0.180000       12.0110           0
      2626 MEMB     20       POPC     H8X      HAL2     0.900000E-01   1.00800           0
      2627 MEMB     20       POPC     H8Y      HAL2     0.900000E-01   1.00800           0
      2628 MEMB     20       POPC     C39      CTL2    -0.180000       12.0110           0
      2629 MEMB     20       POPC     H9X      HAL2     0.900000E-01   1.00800           0
      2630 MEMB     20       POPC     H9Y      HAL2     0.900000E-01   1.00800           0
      2631 MEMB     20       POPC     C310     CTL2    -0.180000       12.0110           0
      2632 MEMB     20       POPC     H10X     HAL2     0.900000E-01   1.00800           0
      2633 MEMB     20       POPC     H10Y     HAL2     0.900000E-01   1.00800           0
      2634 MEMB     20       POPC     C311     CTL2    -0.180000       12.0110           0
      2635 MEMB     20       POPC     H11X     HAL2     0.900000E-01   1.00800           0
      2636 MEMB     20       POPC     H11Y     HAL2     0.900000E-01   1.00800           0
      2637 MEMB     20       POPC     C312     CTL2    -0.180000       12.0110           0
      2638 MEMB     20       POPC     H12X     HAL2     0.900000E-01   1.00800           0
      2639 MEMB     20       POPC     H12Y     HAL2     0.900000E-01   1.00800           0
      2640 MEMB     20       POPC     C313     CTL2    -0.180000       12.0110           0
      2641 MEMB     20       POPC     H13X     HAL2     0.900000E-01   1.00800           0
      2642 MEMB     20       POPC     H13Y     HAL2     0.900000E-01   1.00800           0
      2643 MEMB     20       POPC     C314     CTL2    -0.180000       12.0110           0
      2644 MEMB     20       POPC     H14X     HAL2     0.900000E-01   1.00800           0
      2645 MEMB     20       POPC     H14Y     HAL2     0.900000E-01   1.00800           0
      2646 MEMB     20       POPC     C315     CTL2    -0.180000       12.0110           0
      2647 MEMB     20       POPC     H15X     HAL2     0.900000E-01   1.00800           0
      2648 MEMB     20       POPC     H15Y     HAL2     0.900000E-01   1.00800           0
      2649 MEMB     20       POPC     C316     CTL3    -0.270000       12.0110           0
      2650 MEMB     20       POPC     H16X     HAL3     0.900000E-01   1.00800           0
      2651 MEMB     20       POPC     H16Y     HAL3     0.900000E-01   1.00800           0
      2652 MEMB     20       POPC     H16Z     HAL3     0.900000E-01   1.00800           0
      2653 MEMB     21       POPC     N        NTL     -0.600000       14.0070           0
      2654 MEMB     21       POPC     C12      CTL2    -0.100000       12.0110           0
      2655 MEMB     21       POPC     H12A     HL       0.250000       1.00800           0
      2656 MEMB     21       POPC     H12B     HL       0.250000       1.00800           0
      2657 MEMB     21       POPC     C13      CTL5    -0.350000       12.0110           0
      2658 MEMB     21       POPC     H13A     HL       0.250000       1.00800           0
      2659 MEMB     21       POPC     H13B     HL       0.250000       1.00800           0
      2660 MEMB     21       POPC     H13C     HL       0.250000       1.00800           0
      2661 MEMB     21       POPC     C14      CTL5    -0.350000       12.0110           0
      2662 MEMB     21       POPC     H14A     HL       0.250000       1.00800           0
      2663 MEMB     21       POPC     H14B     HL       0.250000       1.00800           0
      2664 MEMB     21       POPC     H14C     HL       0.250000       1.00800           0
      2665 MEMB     21       POPC     C15      CTL5    -0.350000       12.0110           0
      2666 MEMB     21       POPC     H15A     HL       0.250000       1.00800           0
      2667 MEMB     21       POPC     H15B     HL       0.250000       1.00800           0
      2668 MEMB     21       POPC     H15C     HL       0.250000       1.00800           0
      2669 MEMB     21       POPC     C11      CTL2    -0.800000E-01   12.0110           0
      2670 MEMB     21       POPC     H11A     HAL2     0.900000E-01   1.00800           0
      2671 MEMB     21       POPC     H11B     HAL2     0.900000E-01   1.00800           0
      2672 MEMB     21       POPC     P        PL        1.50000       30.9740           0
      2673 MEMB     21       POPC     O13      O2L     -0.780000       15.9994           0
      2674 MEMB     21       POPC     O14      O2L     -0.780000       15.9994           0
      2675 MEMB     21       POPC     O12      OSLP    -0.570000       15.9994           0
      2676 MEMB     21       POPC     O11      OSLP    -0.570000       15.9994           0
      2677 MEMB     21       POPC     C1       CTL2    -0.800000E-01   12.0110           0
      2678 MEMB     21       POPC     HA       HAL2     0.900000E-01   1.00800           0
      2679 MEMB     21       POPC     HB       HAL2     0.900000E-01   1.00800           0
      2680 MEMB     21       POPC     C2       CTL1     0.170000       12.0110           0
      2681 MEMB     21       POPC     HS       HAL1     0.900000E-01   1.00800           0
      2682 MEMB     21       POPC     O21      OSL     -0.490000       15.9994           0
      2683 MEMB     21       POPC     C21      CL       0.900000       12.0110           0
      2684 MEMB     21       POPC     O22      OBL     -0.630000       15.9994           0
      2685 MEMB     21       POPC     C22      CTL2    -0.220000       12.0110           0
      2686 MEMB     21       POPC     H2R      HAL2     0.900000E-01   1.00800           0
      2687 MEMB     21       POPC     H2S      HAL2     0.900000E-01   1.00800           0
      2688 MEMB     21       POPC     C3       CTL2     0.800000E-01   12.0110           0
      2689 MEMB     21       POPC     HX       HAL2     0.900000E-01   1.00800           0
      2690 MEMB     21       POPC     HY       HAL2     0.900000E-01   1.00800           0
      2691 MEMB     21       POPC     O31      OSL     -0.490000       15.9994           0
      2692 MEMB     21       POPC     C31      CL       0.900000       12.0110           0
      2693 MEMB     21       POPC     O32      OBL     -0.630000       15.9994           0
      2694 MEMB     21       POPC     C32      CTL2    -0.220000       12.0110           0
      2695 MEMB     21       POPC     H2X      HAL2     0.900000E-01   1.00800           0
      2696 MEMB     21       POPC     H2Y      HAL2     0.900000E-01   1.00800           0
      2697 MEMB     21       POPC     C23      CTL2    -0.180000       12.0110           0
      2698 MEMB     21       POPC     H3R      HAL2     0.900000E-01   1.00800           0
      2699 MEMB     21       POPC     H3S      HAL2     0.900000E-01   1.00800           0
      2700 MEMB     21       POPC     C24      CTL2    -0.180000       12.0110           0
      2701 MEMB     21       POPC     H4R      HAL2     0.900000E-01   1.00800           0
      2702 MEMB     21       POPC     H4S      HAL2     0.900000E-01   1.00800           0
      2703 MEMB     21       POPC     C25      CTL2    -0.180000       12.0110           0
      2704 MEMB     21       POPC     H5R      HAL2     0.900000E-01   1.00800           0
      2705 MEMB     21       POPC     H5S      HAL2     0.900000E-01   1.00800           0
      2706 MEMB     21       POPC     C26      CTL2    -0.180000       12.0110           0
      2707 MEMB     21       POPC     H6R      HAL2     0.900000E-01   1.00800           0
      2708 MEMB     21       POPC     H6S      HAL2     0.900000E-01   1.00800           0
      2709 MEMB     21       POPC     C27      CTL2    -0.180000       12.0110           0
      2710 MEMB     21       POPC     H7R      HAL2     0.900000E-01   1.00800           0
      2711 MEMB     21       POPC     H7S      HAL2     0.900000E-01   1.00800           0
      2712 MEMB     21       POPC     C28      CTL2    -0.180000       12.0110           0
      2713 MEMB     21       POPC     H8R      HAL2     0.900000E-01   1.00800           0
      2714 MEMB     21       POPC     H8S      HAL2     0.900000E-01   1.00800           0
      2715 MEMB     21       POPC     C29      CEL1    -0.150000       12.0110           0
      2716 MEMB     21       POPC     H91      HEL1     0.150000       1.00800           0
      2717 MEMB     21       POPC     C210     CEL1    -0.150000       12.0110           0
      2718 MEMB     21       POPC     H101     HEL1     0.150000       1.00800           0
      2719 MEMB     21       POPC     C211     CTL2    -0.180000       12.0110           0
      2720 MEMB     21       POPC     H11R     HAL2     0.900000E-01   1.00800           0
      2721 MEMB     21       POPC     H11S     HAL2     0.900000E-01   1.00800           0
      2722 MEMB     21       POPC     C212     CTL2    -0.180000       12.0110           0
      2723 MEMB     21       POPC     H12R     HAL2     0.900000E-01   1.00800           0
      2724 MEMB     21       POPC     H12S     HAL2     0.900000E-01   1.00800           0
      2725 MEMB     21       POPC     C213     CTL2    -0.180000       12.0110           0
      2726 MEMB     21       POPC     H13R     HAL2     0.900000E-01   1.00800           0
      2727 MEMB     21       POPC     H13S     HAL2     0.900000E-01   1.00800           0
      2728 MEMB     21       POPC     C214     CTL2    -0.180000       12.0110           0
      2729 MEMB     21       POPC     H14R     HAL2     0.900000E-01   1.00800           0
      2730 MEMB     21       POPC     H14S     HAL2     0.900000E-01   1.00800           0
      2731 MEMB     21       POPC     C215     CTL2    -0.180000       12.0110           0
      2732 MEMB     21       POPC     H15R     HAL2     0.900000E-01   1.00800           0
      2733 MEMB     21       POPC     H15S     HAL2     0.900000E-01   1.00800           0
      2734 MEMB     21       POPC     C216     CTL2    -0.180000       12.0110           0
      2735 MEMB     21       POPC     H16R     HAL2     0.900000E-01   1.00800           0
      2736 MEMB     21       POPC     H16S     HAL2     0.900000E-01   1.00800           0
      2737 MEMB     21       POPC     C217     CTL2    -0.180000       12.0110           0
      2738 MEMB     21       POPC     H17R     HAL2     0.900000E-01   1.00800           0
      2739 MEMB     21       POPC     H17S     HAL2     0.900000E-01   1.00800           0
      2740 MEMB     21       POPC     C218     CTL3    -0.270000       12.0110           0
      2741 MEMB     21       POPC     H18R     HAL3     0.900000E-01   1.00800           0
      2742 MEMB     21       POPC     H18S     HAL3     0.900000E-01   1.00800           0
      2743 MEMB     21       POPC     H18T     HAL3     0.900000E-01   1.00800           0
      2744 MEMB     21       POPC     C33      CTL2    -0.180000       12.0110           0
      2745 MEMB     21       POPC     H3X      HAL2     0.900000E-01   1.00800           0
      2746 MEMB     21       POPC     H3Y      HAL2     0.900000E-01   1.00800           0
      2747 MEMB     21       POPC     C34      CTL2    -0.180000       12.0110           0
      2748 MEMB     21       POPC     H4X      HAL2     0.900000E-01   1.00800           0
      2749 MEMB     21       POPC     H4Y      HAL2     0.900000E-01   1.00800           0
      2750 MEMB     21       POPC     C35      CTL2    -0.180000       12.0110           0
      2751 MEMB     21       POPC     H5X      HAL2     0.900000E-01   1.00800           0
      2752 MEMB     21       POPC     H5Y      HAL2     0.900000E-01   1.00800           0
      2753 MEMB     21       POPC     C36      CTL2    -0.180000       12.0110           0
      2754 MEMB     21       POPC     H6X      HAL2     0.900000E-01   1.00800           0
      2755 MEMB     21       POPC     H6Y      HAL2     0.900000E-01   1.00800           0
      2756 MEMB     21       POPC     C37      CTL2    -0.180000       12.0110           0
      2757 MEMB     21       POPC     H7X      HAL2     0.900000E-01   1.00800           0
      2758 MEMB     21       POPC     H7Y      HAL2     0.900000E-01   1.00800           0
      2759 MEMB     21       POPC     C38      CTL2    -0.180000       12.0110           0
      2760 MEMB     21       POPC     H8X      HAL2     0.900000E-01   1.00800           0
      2761 MEMB     21       POPC     H8Y      HAL2     0.900000E-01   1.00800           0
      2762 MEMB     21       POPC     C39      CTL2    -0.180000       12.0110           0
      2763 MEMB     21       POPC     H9X      HAL2     0.900000E-01   1.00800           0
      2764 MEMB     21       POPC     H9Y      HAL2     0.900000E-01   1.00800           0
      2765 MEMB     21       POPC     C310     CTL2    -0.180000       12.0110           0
      2766 MEMB     21       POPC     H10X     HAL2     0.900000E-01   1.00800           0
      2767 MEMB     21       POPC     H10Y     HAL2     0.900000E-01   1.00800           0
      2768 MEMB     21       POPC     C311     CTL2    -0.180000       12.0110           0
      2769 MEMB     21       POPC     H11X     HAL2     0.900000E-01   1.00800           0
      2770 MEMB     21       POPC     H11Y     HAL2     0.900000E-01   1.00800           0
      2771 MEMB     21       POPC     C312     CTL2    -0.180000       12.0110           0
      2772 MEMB     21       POPC     H12X     HAL2     0.900000E-01   1.00800           0
      2773 MEMB     21       POPC     H12Y     HAL2     0.900000E-01   1.00800           0
      2774 MEMB     21       POPC     C313     CTL2    -0.180000       12.0110           0
      2775 MEMB     21       POPC     H13X     HAL2     0.900000E-01   1.00800           0
      2776 MEMB     21       POPC     H13Y     HAL2     0.900000E-01   1.00800           0
      2777 MEMB     21       POPC     C314     CTL2    -0.180000       12.0110           0
      2778 MEMB     21       POPC     H14X     HAL2     0.900000E-01   1.00800           0
      2779 MEMB     21       POPC     H14Y     HAL2     0.900000E-01   1.00800           0
      2780 MEMB     21       POPC     C315     CTL2    -0.180000       12.0110           0
      2781 MEMB     21       POPC     H15X     HAL2     0.900000E-01   1.00800           0
      2782 MEMB     21       POPC     H15Y     HAL2     0.900000E-01   1.00800           0
      2783 MEMB     21       POPC     C316     CTL3    -0.270000       12.0110           0
      2784 MEMB     21       POPC     H16X     HAL3     0.900000E-01   1.00800           0
      2785 MEMB     21       POPC     H16Y     HAL3     0.900000E-01   1.00800           0
      2786 MEMB     21       POPC     H16Z     HAL3     0.900000E-01   1.00800           0
      2787 MEMB     22       POPC     N        NTL     -0.600000       14.0070           0
      2788 MEMB     22       POPC     C12      CTL2    -0.100000       12.0110           0
      2789 MEMB     22       POPC     H12A     HL       0.250000       1.00800           0
      2790 MEMB     22       POPC     H12B     HL       0.250000       1.00800           0
      2791 MEMB     22       POPC     C13      CTL5    -0.350000       12.0110           0
      2792 MEMB     22       POPC     H13A     HL       0.250000       1.00800           0
      2793 MEMB     22       POPC     H13B     HL       0.250000       1.00800           0
      2794 MEMB     22       POPC     H13C     HL       0.250000       1.00800           0
      2795 MEMB     22       POPC     C14      CTL5    -0.350000       12.0110           0
      2796 MEMB     22       POPC     H14A     HL       0.250000       1.00800           0
      2797 MEMB     22       POPC     H14B     HL       0.250000       1.00800           0
      2798 MEMB     22       POPC     H14C     HL       0.250000       1.00800           0
      2799 MEMB     22       POPC     C15      CTL5    -0.350000       12.0110           0
      2800 MEMB     22       POPC     H15A     HL       0.250000       1.00800           0
      2801 MEMB     22       POPC     H15B     HL       0.250000       1.00800           0
      2802 MEMB     22       POPC     H15C     HL       0.250000       1.00800           0
      2803 MEMB     22       POPC     C11      CTL2    -0.800000E-01   12.0110           0
      2804 MEMB     22       POPC     H11A     HAL2     0.900000E-01   1.00800           0
      2805 MEMB     22       POPC     H11B     HAL2     0.900000E-01   1.00800           0
      2806 MEMB     22       POPC     P        PL        1.50000       30.9740           0
      2807 MEMB     22       POPC     O13      O2L     -0.780000       15.9994           0
      2808 MEMB     22       POPC     O14      O2L     -0.780000       15.9994           0
      2809 MEMB     22       POPC     O12      OSLP    -0.570000       15.9994           0
      2810 MEMB     22       POPC     O11      OSLP    -0.570000       15.9994           0
      2811 MEMB     22       POPC     C1       CTL2    -0.800000E-01   12.0110           0
      2812 MEMB     22       POPC     HA       HAL2     0.900000E-01   1.00800           0
      2813 MEMB     22       POPC     HB       HAL2     0.900000E-01   1.00800           0
      2814 MEMB     22       POPC     C2       CTL1     0.170000       12.0110           0
      2815 MEMB     22       POPC     HS       HAL1     0.900000E-01   1.00800           0
      2816 MEMB     22       POPC     O21      OSL     -0.490000       15.9994           0
      2817 MEMB     22       POPC     C21      CL       0.900000       12.0110           0
      2818 MEMB     22       POPC     O22      OBL     -0.630000       15.9994           0
      2819 MEMB     22       POPC     C22      CTL2    -0.220000       12.0110           0
      2820 MEMB     22       POPC     H2R      HAL2     0.900000E-01   1.00800           0
      2821 MEMB     22       POPC     H2S      HAL2     0.900000E-01   1.00800           0
      2822 MEMB     22       POPC     C3       CTL2     0.800000E-01   12.0110           0
      2823 MEMB     22       POPC     HX       HAL2     0.900000E-01   1.00800           0
      2824 MEMB     22       POPC     HY       HAL2     0.900000E-01   1.00800           0
      2825 MEMB     22       POPC     O31      OSL     -0.490000       15.9994           0
      2826 MEMB     22       POPC     C31      CL       0.900000       12.0110           0
      2827 MEMB     22       POPC     O32      OBL     -0.630000       15.9994           0
      2828 MEMB     22       POPC     C32      CTL2    -0.220000       12.0110           0
      2829 MEMB     22       POPC     H2X      HAL2     0.900000E-01   1.00800           0
      2830 MEMB     22       POPC     H2Y      HAL2     0.900000E-01   1.00800           0
      2831 MEMB     22       POPC     C23      CTL2    -0.180000       12.0110           0
      2832 MEMB     22       POPC     H3R      HAL2     0.900000E-01   1.00800           0
      2833 MEMB     22       POPC     H3S      HAL2     0.900000E-01   1.00800           0
      2834 MEMB     22       POPC     C24      CTL2    -0.180000       12.0110           0
      2835 MEMB     22       POPC     H4R      HAL2     0.900000E-01   1.00800           0
      2836 MEMB     22       POPC     H4S      HAL2     0.900000E-01   1.00800           0
      2837 MEMB     22       POPC     C25      CTL2    -0.180000       12.0110           0
      2838 MEMB     22       POPC     H5R      HAL2     0.900000E-01   1.00800           0
      2839 MEMB     22       POPC     H5S      HAL2     0.900000E-01   1.00800           0
      2840 MEMB     22       POPC     C26      CTL2    -0.180000       12.0110           0
      2841 MEMB     22       POPC     H6R      HAL2     0.900000E-01   1.00800           0
      2842 MEMB     22       POPC     H6S      HAL2     0.900000E-01   1.00800           0
      2843 MEMB     22       POPC     C27      CTL2    -0.180000       12.0110           0
      2844 MEMB     22       POPC     H7R      HAL2     0.900000E-01   1.00800           0
      2845 MEMB     22       POPC     H7S      HAL2     0.900000E-01   1.00800           0
      2846 MEMB     22       POPC     C28      CTL2    -0.180000       12.0110           0
      2847 MEMB     22       POPC     H8R      HAL2     0.900000E-01   1.00800           0
      2848 MEMB     22       POPC     H8S      HAL2     0.900000E-01   1.00800           0
      2849 MEMB     22       POPC     C29      CEL1    -0.150000       12.0110           0
      2850 MEMB     22       POPC     H91      HEL1     0.150000       1.00800           0
      2851 MEMB     22       POPC     C210     CEL1    -0.150000       12.0110           0
      2852 MEMB     22       POPC     H101     HEL1     0.150000       1.00800           0
      2853 MEMB     22       POPC     C211     CTL2    -0.180000       12.0110           0
      2854 MEMB     22       POPC     H11R     HAL2     0.900000E-01   1.00800           0
      2855 MEMB     22       POPC     H11S     HAL2     0.900000E-01   1.00800           0
      2856 MEMB     22       POPC     C212     CTL2    -0.180000       12.0110           0
      2857 MEMB     22       POPC     H12R     HAL2     0.900000E-01   1.00800           0
      2858 MEMB     22       POPC     H12S     HAL2     0.900000E-01   1.00800           0
      2859 MEMB     22       POPC     C213     CTL2    -0.180000       12.0110           0
      2860 MEMB     22       POPC     H13R     HAL2     0.900000E-01   1.00800           0
      2861 MEMB     22       POPC     H13S     HAL2     0.900000E-01   1.00800           0
      2862 MEMB     22       POPC     C214     CTL2    -0.180000       12.0110           0
      2863 MEMB     22       POPC     H14R     HAL2     0.900000E-01   1.00800           0
      2864 MEMB     22       POPC     H14S     HAL2     0.900000E-01   1.00800           0
      2865 MEMB     22       POPC     C215     CTL2    -0.180000       12.0110           0
      2866 MEMB     22       POPC     H15R     HAL2     0.900000E-01   1.00800           0
      2867 MEMB     22       POPC     H15S     HAL2     0.900000E-01   1.00800           0
      2868 MEMB     22       POPC     C216     CTL2    -0.180000       12.0110           0
      2869 MEMB     22       POPC     H16R     HAL2     0.900000E-01   1.00800           0
      2870 MEMB     22       POPC     H16S     HAL2     0.900000E-01   1.00800           0
      2871 MEMB     22       POPC     C217     CTL2    -0.180000       12.0110           0
      2872 MEMB     22       POPC     H17R     HAL2     0.900000E-01   1.00800           0
      2873 MEMB     22       POPC     H17S     HAL2     0.900000E-01   1.00800           0
      2874 MEMB     22       POPC     C218     CTL3    -0.270000       12.0110           0
      2875 MEMB     22       POPC     H18R     HAL3     0.900000E-01   1.00800           0
      2876 MEMB     22       POPC     H18S     HAL3     0.900000E-01   1.00800           0
      2877 MEMB     22       POPC     H18T     HAL3     0.900000E-01   1.00800           0
      2878 MEMB     22       POPC     C33      CTL2    -0.180000       12.0110           0
      2879 MEMB     22       POPC     H3X      HAL2     0.900000E-01   1.00800           0
      2880 MEMB     22       POPC     H3Y      HAL2     0.900000E-01   1.00800           0
      2881 MEMB     22       POPC     C34      CTL2    -0.180000       12.0110           0
      2882 MEMB     22       POPC     H4X      HAL2     0.900000E-01   1.00800           0
      2883 MEMB     22       POPC     H4Y      HAL2     0.900000E-01   1.00800           0
      2884 MEMB     22       POPC     C35      CTL2    -0.180000       12.0110           0
      2885 MEMB     22       POPC     H5X      HAL2     0.900000E-01   1.00800           0
      2886 MEMB     22       POPC     H5Y      HAL2     0.900000E-01   1.00800           0
      2887 MEMB     22       POPC     C36      CTL2    -0.180000       12.0110           0
      2888 MEMB     22       POPC     H6X      HAL2     0.900000E-01   1.00800           0
      2889 MEMB     22       POPC     H6Y      HAL2     0.900000E-01   1.00800           0
      2890 MEMB     22       POPC     C37      CTL2    -0.180000       12.0110           0
      2891 MEMB     22       POPC     H7X      HAL2     0.900000E-01   1.00800           0
      2892 MEMB     22       POPC     H7Y      HAL2     0.900000E-01   1.00800           0
      2893 MEMB     22       POPC     C38      CTL2    -0.180000       12.0110           0
      2894 MEMB     22       POPC     H8X      HAL2     0.900000E-01   1.00800           0
      2895 MEMB     22       POPC     H8Y      HAL2     0.900000E-01   1.00800           0
      2896 MEMB     22       POPC     C39      CTL2    -0.180000       12.0110           0
      2897 MEMB     22       POPC     H9X      HAL2     0.900000E-01   1.00800           0
      2898 MEMB     22       POPC     H9Y      HAL2     0.900000E-01   1.00800           0
      2899 MEMB     22       POPC     C310     CTL2    -0.180000       12.0110           0
      2900 MEMB     22       POPC     H10X     HAL2     0.900000E-01   1.00800           0
      2901 MEMB     22       POPC     H10Y     HAL2     0.900000E-01   1.00800           0
      2902 MEMB     22       POPC     C311     CTL2    -0.180000       12.0110           0
      2903 MEMB     22       POPC     H11X     HAL2     0.900000E-01   1.00800           0
      2904 MEMB     22       POPC     H11Y     HAL2     0.900000E-01   1.00800           0
      2905 MEMB     22       POPC     C312     CTL2    -0.180000       12.0110           0
      2906 MEMB     22       POPC     H12X     HAL2     0.900000E-01   1.00800           0
      2907 MEMB     22       POPC     H12Y     HAL2     0.900000E-01   1.00800           0
      2908 MEMB     22       POPC     C313     CTL2    -0.180000       12.0110           0
      2909 MEMB     22       POPC     H13X     HAL2     0.900000E-01   1.00800           0
      2910 MEMB     22       POPC     H13Y     HAL2     0.900000E-01   1.00800           0
      2911 MEMB     22       POPC     C314     CTL2    -0.180000       12.0110           0
      2912 MEMB     22       POPC     H14X     HAL2     0.900000E-01   1.00800           0
      2913 MEMB     22       POPC     H14Y     HAL2     0.900000E-01   1.00800           0
      2914 MEMB     22       POPC     C315     CTL2    -0.180000       12.0110           0
      2915 MEMB     22       POPC     H15X     HAL2     0.900000E-01   1.00800           0
      2916 MEMB     22       POPC     H15Y     HAL2     0.900000E-01   1.00800           0
      2917 MEMB     22       POPC     C316     CTL3    -0.270000       12.0110           0
      2918 MEMB     22       POPC     H16X     HAL3     0.900000E-01   1.00800           0
      2919 MEMB     22       POPC     H16Y     HAL3     0.900000E-01   1.00800           0
      2920 MEMB     22       POPC     H16Z     HAL3     0.900000E-01   1.00800           0
      2921 MEMB     23       POPC     N        NTL     -0.600000       14.0070           0
      2922 MEMB     23       POPC     C12      CTL2    -0.100000       12.0110           0
      2923 MEMB     23       POPC     H12A     HL       0.250000       1.00800           0
      2924 MEMB     23       POPC     H12B     HL       0.250000       1.00800           0
      2925 MEMB     23       POPC     C13      CTL5    -0.350000       12.0110           0
      2926 MEMB     23       POPC     H13A     HL       0.250000       1.00800           0
      2927 MEMB     23       POPC     H13B     HL       0.250000       1.00800           0
      2928 MEMB     23       POPC     H13C     HL       0.250000       1.00800           0
      2929 MEMB     23       POPC     C14      CTL5    -0.350000       12.0110           0
      2930 MEMB     23       POPC     H14A     HL       0.250000       1.00800           0
      2931 MEMB     23       POPC     H14B     HL       0.250000       1.00800           0
      2932 MEMB     23       POPC     H14C     HL       0.250000       1.00800           0
      2933 MEMB     23       POPC     C15      CTL5    -0.350000       12.0110           0
      2934 MEMB     23       POPC     H15A     HL       0.250000       1.00800           0
      2935 MEMB     23       POPC     H15B     HL       0.250000       1.00800           0
      2936 MEMB     23       POPC     H15C     HL       0.250000       1.00800           0
      2937 MEMB     23       POPC     C11      CTL2    -0.800000E-01   12.0110           0
      2938 MEMB     23       POPC     H11A     HAL2     0.900000E-01   1.00800           0
      2939 MEMB     23       POPC     H11B     HAL2     0.900000E-01   1.00800           0
      2940 MEMB     23       POPC     P        PL        1.50000       30.9740           0
      2941 MEMB     23       POPC     O13      O2L     -0.780000       15.9994           0
      2942 MEMB     23       POPC     O14      O2L     -0.780000       15.9994           0
      2943 MEMB     23       POPC     O12      OSLP    -0.570000       15.9994           0
      2944 MEMB     23       POPC     O11      OSLP    -0.570000       15.9994           0
      2945 MEMB     23       POPC     C1       CTL2    -0.800000E-01   12.0110           0
      2946 MEMB     23       POPC     HA       HAL2     0.900000E-01   1.00800           0
      2947 MEMB     23       POPC     HB       HAL2     0.900000E-01   1.00800           0
      2948 MEMB     23       POPC     C2       CTL1     0.170000       12.0110           0
      2949 MEMB     23       POPC     HS       HAL1     0.900000E-01   1.00800           0
      2950 MEMB     23       POPC     O21      OSL     -0.490000       15.9994           0
      2951 MEMB     23       POPC     C21      CL       0.900000       12.0110           0
      2952 MEMB     23       POPC     O22      OBL     -0.630000       15.9994           0
      2953 MEMB     23       POPC     C22      CTL2    -0.220000       12.0110           0
      2954 MEMB     23       POPC     H2R      HAL2     0.900000E-01   1.00800           0
      2955 MEMB     23       POPC     H2S      HAL2     0.900000E-01   1.00800           0
      2956 MEMB     23       POPC     C3       CTL2     0.800000E-01   12.0110           0
      2957 MEMB     23       POPC     HX       HAL2     0.900000E-01   1.00800           0
      2958 MEMB     23       POPC     HY       HAL2     0.900000E-01   1.00800           0
      2959 MEMB     23       POPC     O31      OSL     -0.490000       15.9994           0
      2960 MEMB     23       POPC     C31      CL       0.900000       12.0110           0
      2961 MEMB     23       POPC     O32      OBL     -0.630000       15.9994           0
      2962 MEMB     23       POPC     C32      CTL2    -0.220000       12.0110           0
      2963 MEMB     23       POPC     H2X      HAL2     0.900000E-01   1.00800           0
      2964 MEMB     23       POPC     H2Y      HAL2     0.900000E-01   1.00800           0
      2965 MEMB     23       POPC     C23      CTL2    -0.180000       12.0110           0
      2966 MEMB     23       POPC     H3R      HAL2     0.900000E-01   1.00800           0
      2967 MEMB     23       POPC     H3S      HAL2     0.900000E-01   1.00800           0
      2968 MEMB     23       POPC     C24      CTL2    -0.180000       12.0110           0
      2969 MEMB     23       POPC     H4R      HAL2     0.900000E-01   1.00800           0
      2970 MEMB     23       POPC     H4S      HAL2     0.900000E-01   1.00800           0
      2971 MEMB     23       POPC     C25      CTL2    -0.180000       12.0110           0
      2972 MEMB     23       POPC     H5R      HAL2     0.900000E-01   1.00800           0
      2973 MEMB     23       POPC     H5S      HAL2     0.900000E-01   1.00800           0
      2974 MEMB     23       POPC     C26      CTL2    -0.180000       12.0110           0
      2975 MEMB     23       POPC     H6R      HAL2     0.900000E-01   1.00800           0
      2976 MEMB     23       POPC     H6S      HAL2     0.900000E-01   1.00800           0
      2977 MEMB     23       POPC     C27      CTL2    -0.180000       12.0110           0
      2978 MEMB     23       POPC     H7R      HAL2     0.900000E-01   1.00800           0
      2979 MEMB     23       POPC     H7S      HAL2     0.900000E-01   1.00800           0
      2980 MEMB     23       POPC     C28      CTL2    -0.180000       12.0110           0
      2981 MEMB     23       POPC     H8R      HAL2     0.900000E-01   1.00800           0
      2982 MEMB     23       POPC     H8S      HAL2     0.900000E-01   1.00800           0
      2983 MEMB     23       POPC     C29      CEL1    -0.150000       12.0110           0
      2984 MEMB     23       POPC     H91      HEL1     0.150000       1.00800           0
      2985 MEMB     23       POPC     C210     CEL1    -0.150000       12.0110           0
      2986 MEMB     23       POPC     H101     HEL1     0.150000       1.00800           0
      2987 MEMB     23       POPC     C211     CTL2    -0.180000       12.0110           0
      2988 MEMB     23       POPC     H11R     HAL2     0.900000E-01   1.00800           0
      2989 MEMB     23       POPC     H11S     HAL2     0.900000E-01   1.00800           0
      2990 MEMB     23       POPC     C212     CTL2    -0.180000       12.0110           0
      2991 MEMB     23       POPC     H12R     HAL2     0.900000E-01   1.00800           0
      2992 MEMB     23       POPC     H12S     HAL2     0.900000E-01   1.00800           0
      2993 MEMB     23       POPC     C213     CTL2    -0.180000       12.0110           0
      2994 MEMB     23       POPC     H13R     HAL2     0.900000E-01   1.00800           0
      2995 MEMB     23       POPC     H13S     HAL2     0.900000E-01   1.00800           0
      2996 MEMB     23       POPC     C214     CTL2    -0.180000       12.0110           0
      2997 MEMB     23       POPC     H14R     HAL2     0.900000E-01   1.00800           0
      2998 MEMB     23       POPC     H14S     HAL2     0.900000E-01   1.00800           0
      2999 MEMB     23       POPC     C215     CTL2    -0.180000       12.0110           0
      3000 MEMB     23       POPC     H15R     HAL2     0.900000E-01   1.00800           0
      3001 MEMB     23       POPC     H15S     HAL2     0.900000E-01   1.00800           0
      3002 MEMB     23       POPC     C216     CTL2    -0.180000       12.0110           0
      3003 MEMB     23       POPC     H16R     HAL2     0.900000E-01   1.00800           0
      3004 MEMB     23       POPC     H16S     HAL2     0.900000E-01   1.00800           0
      3005 MEMB     23       POPC     C217     CTL2    -0.180000       12.0110           0
      3006 MEMB     23       POPC     H17R     HAL2     0.900000E-01   1.00800           0
      3007 MEMB     23       POPC     H17S     HAL2     0.900000E-01   1.00800           0
      3008 MEMB     23       POPC     C218     CTL3    -0.270000       12.0110           0
      3009 MEMB     23       POPC     H18R     HAL3     0.900000E-01   1.00800           0
      3010 MEMB     23       POPC     H18S     HAL3     0.900000E-01   1.00800           0
      3011 MEMB     23       POPC     H18T     HAL3     0.900000E-01   1.00800           0
      3012 MEMB     23       POPC     C33      CTL2    -0.180000       12.0110           0
      3013 MEMB     23       POPC     H3X      HAL2     0.900000E-01   1.00800           0
      3014 MEMB     23       POPC     H3Y      HAL2     0.900000E-01   1.00800           0
      3015 MEMB     23       POPC     C34      CTL2    -0.180000       12.0110           0
      3016 MEMB     23       POPC     H4X      HAL2     0.900000E-01   1.00800           0
      3017 MEMB     23       POPC     H4Y      HAL2     0.900000E-01   1.00800           0
      3018 MEMB     23       POPC     C35      CTL2    -0.180000       12.0110           0
      3019 MEMB     23       POPC     H5X      HAL2     0.900000E-01   1.00800           0
      3020 MEMB     23       POPC     H5Y      HAL2     0.900000E-01   1.00800           0
      3021 MEMB     23       POPC     C36      CTL2    -0.180000       12.0110           0
      3022 MEMB     23       POPC     H6X      HAL2     0.900000E-01   1.00800           0
      3023 MEMB     23       POPC     H6Y      HAL2     0.900000E-01   1.00800           0
      3024 MEMB     23       POPC     C37      CTL2    -0.180000       12.0110           0
      3025 MEMB     23       POPC     H7X      HAL2     0.900000E-01   1.00800           0
      3026 MEMB     23       POPC     H7Y      HAL2     0.900000E-01   1.00800           0
      3027 MEMB     23       POPC     C38      CTL2    -0.180000       12.0110           0
      3028 MEMB     23       POPC     H8X      HAL2     0.900000E-01   1.00800           0
      3029 MEMB     23       POPC     H8Y      HAL2     0.900000E-01   1.00800           0
      3030 MEMB     23       POPC     C39      CTL2    -0.180000       12.0110           0
      3031 MEMB     23       POPC     H9X      HAL2     0.900000E-01   1.00800           0
      3032 MEMB     23       POPC     H9Y      HAL2     0.900000E-01   1.00800           0
      3033 MEMB     23       POPC     C310     CTL2    -0.180000       12.0110           0
      3034 MEMB     23       POPC     H10X     HAL2     0.900000E-01   1.00800           0
      3035 MEMB     23       POPC     H10Y     HAL2     0.900000E-01   1.00800           0
      3036 MEMB     23       POPC     C311     CTL2    -0.180000       12.0110           0
      3037 MEMB     23       POPC     H11X     HAL2     0.900000E-01   1.00800           0
      3038 MEMB     23       POPC     H11Y     HAL2     0.900000E-01   1.00800           0
      3039 MEMB     23       POPC     C312     CTL2    -0.180000       12.0110           0
      3040 MEMB     23       POPC     H12X     HAL2     0.900000E-01   1.00800           0
      3041 MEMB     23       POPC     H12Y     HAL2     0.900000E-01   1.00800           0
      3042 MEMB     23       POPC     C313     CTL2    -0.180000       12.0110           0
      3043 MEMB     23       POPC     H13X     HAL2     0.900000E-01   1.00800           0
      3044 MEMB     23       POPC     H13Y     HAL2     0.900000E-01   1.00800           0
      3045 MEMB     23       POPC     C314     CTL2    -0.180000       12.0110           0
      3046 MEMB     23       POPC     H14X     HAL2     0.900000E-01   1.00800           0
      3047 MEMB     23       POPC     H14Y     HAL2     0.900000E-01   1.00800           0
      3048 MEMB     23       POPC     C315     CTL2    -0.180000       12.0110           0
      3049 MEMB     23       POPC     H15X     HAL2     0.900000E-01   1.00800           0
      3050 MEMB     23       POPC     H15Y     HAL2     0.900000E-01   1.00800           0
      3051 MEMB     23       POPC     C316     CTL3    -0.270000       12.0110           0
      3052 MEMB     23       POPC     H16X     HAL3     0.900000E-01   1.00800           0
      3053 MEMB     23       POPC     H16Y     HAL3     0.900000E-01   1.00800           0
      3054 MEMB     23       POPC     H16Z     HAL3     0.900000E-01   1.00800           0
      3055 MEMB     24       POPS     N        NH3L    -0.300000       14.0070           0
      3056 MEMB     24       POPS     HN1      HCL      0.330000       1.00800           0
      3057 MEMB     24       POPS     HN2      HCL      0.330000       1.00800           0
      3058 MEMB     24       POPS     HN3      HCL      0.330000       1.00800           0
      3059 MEMB     24       POPS     C12      CTL1     0.210000       12.0110           0
      3060 MEMB     24       POPS     H12A     HBL      0.100000       1.00800           0
      3061 MEMB     24       POPS     C13      CCL      0.340000       12.0110           0
      3062 MEMB     24       POPS     O13A     OCL     -0.670000       15.9994           0
      3063 MEMB     24       POPS     O13B     OCL     -0.670000       15.9994           0
      3064 MEMB     24       POPS     C11      CTL2    -0.800000E-01   12.0110           0
      3065 MEMB     24       POPS     H11A     HAL2     0.900000E-01   1.00800           0
      3066 MEMB     24       POPS     H11B     HAL2     0.900000E-01   1.00800           0
      3067 MEMB     24       POPS     P        PL        1.50000       30.9740           0
      3068 MEMB     24       POPS     O13      O2L     -0.780000       15.9994           0
      3069 MEMB     24       POPS     O14      O2L     -0.780000       15.9994           0
      3070 MEMB     24       POPS     O12      OSLP    -0.570000       15.9994           0
      3071 MEMB     24       POPS     O11      OSLP    -0.570000       15.9994           0
      3072 MEMB     24       POPS     C1       CTL2    -0.800000E-01   12.0110           0
      3073 MEMB     24       POPS     HA       HAL2     0.900000E-01   1.00800           0
      3074 MEMB     24       POPS     HB       HAL2     0.900000E-01   1.00800           0
      3075 MEMB     24       POPS     C2       CTL1     0.170000       12.0110           0
      3076 MEMB     24       POPS     HS       HAL1     0.900000E-01   1.00800           0
      3077 MEMB     24       POPS     O21      OSL     -0.490000       15.9994           0
      3078 MEMB     24       POPS     C21      CL       0.900000       12.0110           0
      3079 MEMB     24       POPS     O22      OBL     -0.630000       15.9994           0
      3080 MEMB     24       POPS     C22      CTL2    -0.220000       12.0110           0
      3081 MEMB     24       POPS     H2R      HAL2     0.900000E-01   1.00800           0
      3082 MEMB     24       POPS     H2S      HAL2     0.900000E-01   1.00800           0
      3083 MEMB     24       POPS     C3       CTL2     0.800000E-01   12.0110           0
      3084 MEMB     24       POPS     HX       HAL2     0.900000E-01   1.00800           0
      3085 MEMB     24       POPS     HY       HAL2     0.900000E-01   1.00800           0
      3086 MEMB     24       POPS     O31      OSL     -0.490000       15.9994           0
      3087 MEMB     24       POPS     C31      CL       0.900000       12.0110           0
      3088 MEMB     24       POPS     O32      OBL     -0.630000       15.9994           0
      3089 MEMB     24       POPS     C32      CTL2    -0.220000       12.0110           0
      3090 MEMB     24       POPS     H2X      HAL2     0.900000E-01   1.00800           0
      3091 MEMB     24       POPS     H2Y      HAL2     0.900000E-01   1.00800           0
      3092 MEMB     24       POPS     C23      CTL2    -0.180000       12.0110           0
      3093 MEMB     24       POPS     H3R      HAL2     0.900000E-01   1.00800           0
      3094 MEMB     24       POPS     H3S      HAL2     0.900000E-01   1.00800           0
      3095 MEMB     24       POPS     C24      CTL2    -0.180000       12.0110           0
      3096 MEMB     24       POPS     H4R      HAL2     0.900000E-01   1.00800           0
      3097 MEMB     24       POPS     H4S      HAL2     0.900000E-01   1.00800           0
      3098 MEMB     24       POPS     C25      CTL2    -0.180000       12.0110           0
      3099 MEMB     24       POPS     H5R      HAL2     0.900000E-01   1.00800           0
      3100 MEMB     24       POPS     H5S      HAL2     0.900000E-01   1.00800           0
      3101 MEMB     24       POPS     C26      CTL2    -0.180000       12.0110           0
      3102 MEMB     24       POPS     H6R      HAL2     0.900000E-01   1.00800           0
      3103 MEMB     24       POPS     H6S      HAL2     0.900000E-01   1.00800           0
      3104 MEMB     24       POPS     C27      CTL2    -0.180000       12.0110           0
      3105 MEMB     24       POPS     H7R      HAL2     0.900000E-01   1.00800           0
      3106 MEMB     24       POPS     H7S      HAL2     0.900000E-01   1.00800           0
      3107 MEMB     24       POPS     C28      CTL2    -0.180000       12.0110           0
      3108 MEMB     24       POPS     H8R      HAL2     0.900000E-01   1.00800           0
      3109 MEMB     24       POPS     H8S      HAL2     0.900000E-01   1.00800           0
      3110 MEMB     24       POPS     C29      CEL1    -0.150000       12.0110           0
      3111 MEMB     24       POPS     H91      HEL1     0.150000       1.00800           0
      3112 MEMB     24       POPS     C210     CEL1    -0.150000       12.0110           0
      3113 MEMB     24       POPS     H101     HEL1     0.150000       1.00800           0
      3114 MEMB     24       POPS     C211     CTL2    -0.180000       12.0110           0
      3115 MEMB     24       POPS     H11R     HAL2     0.900000E-01   1.00800           0
      3116 MEMB     24       POPS     H11S     HAL2     0.900000E-01   1.00800           0
      3117 MEMB     24       POPS     C212     CTL2    -0.180000       12.0110           0
      3118 MEMB     24       POPS     H12R     HAL2     0.900000E-01   1.00800           0
      3119 MEMB     24       POPS     H12S     HAL2     0.900000E-01   1.00800           0
      3120 MEMB     24       POPS     C213     CTL2    -0.180000       12.0110           0
      3121 MEMB     24       POPS     H13R     HAL2     0.900000E-01   1.00800           0
      3122 MEMB     24       POPS     H13S     HAL2     0.900000E-01   1.00800           0
      3123 MEMB     24       POPS     C214     CTL2    -0.180000       12.0110           0
      3124 MEMB     24       POPS     H14R     HAL2     0.900000E-01   1.00800           0
      3125 MEMB     24       POPS     H14S     HAL2     0.900000E-01   1.00800           0
      3126 MEMB     24       POPS     C215     CTL2    -0.180000       12.0110           0
      3127 MEMB     24       POPS     H15R     HAL2     0.900000E-01   1.00800           0
      3128 MEMB     24       POPS     H15S     HAL2     0.900000E-01   1.00800           0
      3129 MEMB     24       POPS     C216     CTL2    -0.180000       12.0110           0
      3130 MEMB     24       POPS     H16R     HAL2     0.900000E-01   1.00800           0
      3131 MEMB     24       POPS     H16S     HAL2     0.900000E-01   1.00800           0
      3132 MEMB     24       POPS     C217     CTL2    -0.180000       12.0110           0
      3133 MEMB     24       POPS     H17R     HAL2     0.900000E-01   1.00800           0
      3134 MEMB     24       POPS     H17S     HAL2     0.900000E-01   1.00800           0
      3135 MEMB     24       POPS     C218     CTL3    -0.270000       12.0110           0
      3136 MEMB     24       POPS     H18R     HAL3     0.900000E-01   1.00800           0
      3137 MEMB     24       POPS     H18S     HAL3     0.900000E-01   1.00800           0
      3138 MEMB     24       POPS     H18T     HAL3     0.900000E-01   1.00800           0
      3139 MEMB     24       POPS     C33      CTL2    -0.180000       12.0110           0
      3140 MEMB     24       POPS     H3X      HAL2     0.900000E-01   1.00800           0
      3141 MEMB     24       POPS     H3Y      HAL2     0.900000E-01   1.00800           0
      3142 MEMB     24       POPS     C34      CTL2    -0.180000       12.0110           0
      3143 MEMB     24       POPS     H4X      HAL2     0.900000E-01   1.00800           0
      3144 MEMB     24       POPS     H4Y      HAL2     0.900000E-01   1.00800           0
      3145 MEMB     24       POPS     C35      CTL2    -0.180000       12.0110           0
      3146 MEMB     24       POPS     H5X      HAL2     0.900000E-01   1.00800           0
      3147 MEMB     24       POPS     H5Y      HAL2     0.900000E-01   1.00800           0
      3148 MEMB     24       POPS     C36      CTL2    -0.180000       12.0110           0
      3149 MEMB     24       POPS     H6X      HAL2     0.900000E-01   1.00800           0
      3150 MEMB     24       POPS     H6Y      HAL2     0.900000E-01   1.00800           0
      3151 MEMB     24       POPS     C37      CTL2    -0.180000       12.0110           0
      3152 MEMB     24       POPS     H7X      HAL2     0.900000E-01   1.00800           0
      3153 MEMB     24       POPS     H7Y      HAL2     0.900000E-01   1.00800           0
      3154 MEMB     24       POPS     C38      CTL2    -0.180000       12.0110           0
      3155 MEMB     24       POPS     H8X      HAL2     0.900000E-01   1.00800           0
      3156 MEMB     24       POPS     H8Y      HAL2     0.900000E-01   1.00800           0
      3157 MEMB     24       POPS     C39      CTL2    -0.180000       12.0110           0
      3158 MEMB     24       POPS     H9X      HAL2     0.900000E-01   1.00800           0
      3159 MEMB     24       POPS     H9Y      HAL2     0.900000E-01   1.00800           0
      3160 MEMB     24       POPS     C310     CTL2    -0.180000       12.0110           0
      3161 MEMB     24       POPS     H10X     HAL2     0.900000E-01   1.00800           0
      3162 MEMB     24       POPS     H10Y     HAL2     0.900000E-01   1.00800           0
      3163 MEMB     24       POPS     C311     CTL2    -0.180000       12.0110           0
      3164 MEMB     24       POPS     H11X     HAL2     0.900000E-01   1.00800           0
      3165 MEMB     24       POPS     H11Y     HAL2     0.900000E-01   1.00800           0
      3166 MEMB     24       POPS     C312     CTL2    -0.180000       12.0110           0
      3167 MEMB     24       POPS     H12X     HAL2     0.900000E-01   1.00800           0
      3168 MEMB     24       POPS     H12Y     HAL2     0.900000E-01   1.00800           0
      3169 MEMB     24       POPS     C313     CTL2    -0.180000       12.0110           0
      3170 MEMB     24       POPS     H13X     HAL2     0.900000E-01   1.00800           0
      3171 MEMB     24       POPS     H13Y     HAL2     0.900000E-01   1.00800           0
      3172 MEMB     24       POPS     C314     CTL2    -0.180000       12.0110           0
      3173 MEMB     24       POPS     H14X     HAL2     0.900000E-01   1.00800           0
      3174 MEMB     24       POPS     H14Y     HAL2     0.900000E-01   1.00800           0
      3175 MEMB     24       POPS     C315     CTL2    -0.180000       12.0110           0
      3176 MEMB     24       POPS     H15X     HAL2     0.900000E-01   1.00800           0
      3177 MEMB     24       POPS     H15Y     HAL2     0.900000E-01   1.00800           0
      3178 MEMB     24       POPS     C316     CTL3    -0.270000       12.0110           0
      3179 MEMB     24       POPS     H16X     HAL3     0.900000E-01   1.00800           0
      3180 MEMB     24       POPS     H16Y     HAL3     0.900000E-01   1.00800           0
      3181 MEMB     24       POPS     H16Z     HAL3     0.900000E-01   1.00800           0
      3182 MEMB     25       POPS     N        NH3L    -0.300000       14.0070           0
      3183 MEMB     25       POPS     HN1      HCL      0.330000       1.00800           0
      3184 MEMB     25       POPS     HN2      HCL      0.330000       1.00800           0
      3185 MEMB     25       POPS     HN3      HCL      0.330000       1.00800           0
      3186 MEMB     25       POPS     C12      CTL1     0.210000       12.0110           0
      3187 MEMB     25       POPS     H12A     HBL      0.100000       1.00800           0
      3188 MEMB     25       POPS     C13      CCL      0.340000       12.0110           0
      3189 MEMB     25       POPS     O13A     OCL     -0.670000       15.9994           0
      3190 MEMB     25       POPS     O13B     OCL     -0.670000       15.9994           0
      3191 MEMB     25       POPS     C11      CTL2    -0.800000E-01   12.0110           0
      3192 MEMB     25       POPS     H11A     HAL2     0.900000E-01   1.00800           0
      3193 MEMB     25       POPS     H11B     HAL2     0.900000E-01   1.00800           0
      3194 MEMB     25       POPS     P        PL        1.50000       30.9740           0
      3195 MEMB     25       POPS     O13      O2L     -0.780000       15.9994           0
      3196 MEMB     25       POPS     O14      O2L     -0.780000       15.9994           0
      3197 MEMB     25       POPS     O12      OSLP    -0.570000       15.9994           0
      3198 MEMB     25       POPS     O11      OSLP    -0.570000       15.9994           0
      3199 MEMB     25       POPS     C1       CTL2    -0.800000E-01   12.0110           0
      3200 MEMB     25       POPS     HA       HAL2     0.900000E-01   1.00800           0
      3201 MEMB     25       POPS     HB       HAL2     0.900000E-01   1.00800           0
      3202 MEMB     25       POPS     C2       CTL1     0.170000       12.0110           0
      3203 MEMB     25       POPS     HS       HAL1     0.900000E-01   1.00800           0
      3204 MEMB     25       POPS     O21      OSL     -0.490000       15.9994           0
      3205 MEMB     25       POPS     C21      CL       0.900000       12.0110           0
      3206 MEMB     25       POPS     O22      OBL     -0.630000       15.9994           0
      3207 MEMB     25       POPS     C22      CTL2    -0.220000       12.0110           0
      3208 MEMB     25       POPS     H2R      HAL2     0.900000E-01   1.00800           0
      3209 MEMB     25       POPS     H2S      HAL2     0.900000E-01   1.00800           0
      3210 MEMB     25       POPS     C3       CTL2     0.800000E-01   12.0110           0
      3211 MEMB     25       POPS     HX       HAL2     0.900000E-01   1.00800           0
      3212 MEMB     25       POPS     HY       HAL2     0.900000E-01   1.00800           0
      3213 MEMB     25       POPS     O31      OSL     -0.490000       15.9994           0
      3214 MEMB     25       POPS     C31      CL       0.900000       12.0110           0
      3215 MEMB     25       POPS     O32      OBL     -0.630000       15.9994           0
      3216 MEMB     25       POPS     C32      CTL2    -0.220000       12.0110           0
      3217 MEMB     25       POPS     H2X      HAL2     0.900000E-01   1.00800           0
      3218 MEMB     25       POPS     H2Y      HAL2     0.900000E-01   1.00800           0
      3219 MEMB     25       POPS     C23      CTL2    -0.180000       12.0110           0
      3220 MEMB     25       POPS     H3R      HAL2     0.900000E-01   1.00800           0
      3221 MEMB     25       POPS     H3S      HAL2     0.900000E-01   1.00800           0
      3222 MEMB     25       POPS     C24      CTL2    -0.180000       12.0110           0
      3223 MEMB     25       POPS     H4R      HAL2     0.900000E-01   1.00800           0
      3224 MEMB     25       POPS     H4S      HAL2     0.900000E-01   1.00800           0
      3225 MEMB     25       POPS     C25      CTL2    -0.180000       12.0110           0
      3226 MEMB     25       POPS     H5R      HAL2     0.900000E-01   1.00800           0
      3227 MEMB     25       POPS     H5S      HAL2     0.900000E-01   1.00800           0
      3228 MEMB     25       POPS     C26      CTL2    -0.180000       12.0110           0
      3229 MEMB     25       POPS     H6R      HAL2     0.900000E-01   1.00800           0
      3230 MEMB     25       POPS     H6S      HAL2     0.900000E-01   1.00800           0
      3231 MEMB     25       POPS     C27      CTL2    -0.180000       12.0110           0
      3232 MEMB     25       POPS     H7R      HAL2     0.900000E-01   1.00800           0
      3233 MEMB     25       POPS     H7S      HAL2     0.900000E-01   1.00800           0
      3234 MEMB     25       POPS     C28      CTL2    -0.180000       12.0110           0
      3235 MEMB     25       POPS     H8R      HAL2     0.900000E-01   1.00800           0
      3236 MEMB     25       POPS     H8S      HAL2     0.900000E-01   1.00800           0
      3237 MEMB     25       POPS     C29      CEL1    -0.150000       12.0110           0
      3238 MEMB     25       POPS     H91      HEL1     0.150000       1.00800           0
      3239 MEMB     25       POPS     C210     CEL1    -0.150000       12.0110           0
      3240 MEMB     25       POPS     H101     HEL1     0.150000       1.00800           0
      3241 MEMB     25       POPS     C211     CTL2    -0.180000       12.0110           0
      3242 MEMB     25       POPS     H11R     HAL2     0.900000E-01   1.00800           0
      3243 MEMB     25       POPS     H11S     HAL2     0.900000E-01   1.00800           0
      3244 MEMB     25       POPS     C212     CTL2    -0.180000       12.0110           0
      3245 MEMB     25       POPS     H12R     HAL2     0.900000E-01   1.00800           0
      3246 MEMB     25       POPS     H12S     HAL2     0.900000E-01   1.00800           0
      3247 MEMB     25       POPS     C213     CTL2    -0.180000       12.0110           0
      3248 MEMB     25       POPS     H13R     HAL2     0.900000E-01   1.00800           0
      3249 MEMB     25       POPS     H13S     HAL2     0.900000E-01   1.00800           0
      3250 MEMB     25       POPS     C214     CTL2    -0.180000       12.0110           0
      3251 MEMB     25       POPS     H14R     HAL2     0.900000E-01   1.00800           0
      3252 MEMB     25       POPS     H14S     HAL2     0.900000E-01   1.00800           0
      3253 MEMB     25       POPS     C215     CTL2    -0.180000       12.0110           0
      3254 MEMB     25       POPS     H15R     HAL2     0.900000E-01   1.00800           0
      3255 MEMB     25       POPS     H15S     HAL2     0.900000E-01   1.00800           0
      3256 MEMB     25       POPS     C216     CTL2    -0.180000       12.0110           0
      3257 MEMB     25       POPS     H16R     HAL2     0.900000E-01   1.00800           0
      3258 MEMB     25       POPS     H16S     HAL2     0.900000E-01   1.00800           0
      3259 MEMB     25       POPS     C217     CTL2    -0.180000       12.0110           0
      3260 MEMB     25       POPS     H17R     HAL2     0.900000E-01   1.00800           0
      3261 MEMB     25       POPS     H17S     HAL2     0.900000E-01   1.00800           0
      3262 MEMB     25       POPS     C218     CTL3    -0.270000       12.0110           0
      3263 MEMB     25       POPS     H18R     HAL3     0.900000E-01   1.00800           0
      3264 MEMB     25       POPS     H18S     HAL3     0.900000E-01   1.00800           0
      3265 MEMB     25       POPS     H18T     HAL3     0.900000E-01   1.00800           0
      3266 MEMB     25       POPS     C33      CTL2    -0.180000       12.0110           0
      3267 MEMB     25       POPS     H3X      HAL2     0.900000E-01   1.00800           0
      3268 MEMB     25       POPS     H3Y      HAL2     0.900000E-01   1.00800           0
      3269 MEMB     25       POPS     C34      CTL2    -0.180000       12.0110           0
      3270 MEMB     25       POPS     H4X      HAL2     0.900000E-01   1.00800           0
      3271 MEMB     25       POPS     H4Y      HAL2     0.900000E-01   1.00800           0
      3272 MEMB     25       POPS     C35      CTL2    -0.180000       12.0110           0
      3273 MEMB     25       POPS     H5X      HAL2     0.900000E-01   1.00800           0
      3274 MEMB     25       POPS     H5Y      HAL2     0.900000E-01   1.00800           0
      3275 MEMB     25       POPS     C36      CTL2    -0.180000       12.0110           0
      3276 MEMB     25       POPS     H6X      HAL2     0.900000E-01   1.00800           0
      3277 MEMB     25       POPS     H6Y      HAL2     0.900000E-01   1.00800           0
      3278 MEMB     25       POPS     C37      CTL2    -0.180000       12.0110           0
      3279 MEMB     25       POPS     H7X      HAL2     0.900000E-01   1.00800           0
      3280 MEMB     25       POPS     H7Y      HAL2     0.900000E-01   1.00800           0
      3281 MEMB     25       POPS     C38      CTL2    -0.180000       12.0110           0
      3282 MEMB     25       POPS     H8X      HAL2     0.900000E-01   1.00800           0
      3283 MEMB     25       POPS     H8Y      HAL2     0.900000E-01   1.00800           0
      3284 MEMB     25       POPS     C39      CTL2    -0.180000       12.0110           0
      3285 MEMB     25       POPS     H9X      HAL2     0.900000E-01   1.00800           0
      3286 MEMB     25       POPS     H9Y      HAL2     0.900000E-01   1.00800           0
      3287 MEMB     25       POPS     C310     CTL2    -0.180000       12.0110           0
      3288 MEMB     25       POPS     H10X     HAL2     0.900000E-01   1.00800           0
      3289 MEMB     25       POPS     H10Y     HAL2     0.900000E-01   1.00800           0
      3290 MEMB     25       POPS     C311     CTL2    -0.180000       12.0110           0
      3291 MEMB     25       POPS     H11X     HAL2     0.900000E-01   1.00800           0
      3292 MEMB     25       POPS     H11Y     HAL2     0.900000E-01   1.00800           0
      3293 MEMB     25       POPS     C312     CTL2    -0.180000       12.0110           0
      3294 MEMB     25       POPS     H12X     HAL2     0.900000E-01   1.00800           0
      3295 MEMB     25       POPS     H12Y     HAL2     0.900000E-01   1.00800           0
      3296 MEMB     25       POPS     C313     CTL2    -0.180000       12.0110           0
      3297 MEMB     25       POPS     H13X     HAL2     0.900000E-01   1.00800           0
      3298 MEMB     25       POPS     H13Y     HAL2     0.900000E-01   1.00800           0
      3299 MEMB     25       POPS     C314     CTL2    -0.180000       12.0110           0
      3300 MEMB     25       POPS     H14X     HAL2     0.900000E-01   1.00800           0
      3301 MEMB     25       POPS     H14Y     HAL2     0.900000E-01   1.00800           0
      3302 MEMB     25       POPS     C315     CTL2    -0.180000       12.0110           0
      3303 MEMB     25       POPS     H15X     HAL2     0.900000E-01   1.00800           0
      3304 MEMB     25       POPS     H15Y     HAL2     0.900000E-01   1.00800           0
      3305 MEMB     25       POPS     C316     CTL3    -0.270000       12.0110           0
      3306 MEMB     25       POPS     H16X     HAL3     0.900000E-01   1.00800           0
      3307 MEMB     25       POPS     H16Y     HAL3     0.900000E-01   1.00800           0
      3308 MEMB     25       POPS     H16Z     HAL3     0.900000E-01   1.00800           0
      3309 MEMB     26       POPC     N        NTL     -0.600000       14.0070           0
      3310 MEMB     26       POPC     C12      CTL2    -0.100000       12.0110           0
      3311 MEMB     26       POPC     H12A     HL       0.250000       1.00800           0
      3312 MEMB     26       POPC     H12B     HL       0.250000       1.00800           0
      3313 MEMB     26       POPC     C13      CTL5    -0.350000       12.0110           0
      3314 MEMB     26       POPC     H13A     HL       0.250000       1.00800           0
      3315 MEMB     26       POPC     H13B     HL       0.250000       1.00800           0
      3316 MEMB     26       POPC     H13C     HL       0.250000       1.00800           0
      3317 MEMB     26       POPC     C14      CTL5    -0.350000       12.0110           0
      3318 MEMB     26       POPC     H14A     HL       0.250000       1.00800           0
      3319 MEMB     26       POPC     H14B     HL       0.250000       1.00800           0
      3320 MEMB     26       POPC     H14C     HL       0.250000       1.00800           0
      3321 MEMB     26       POPC     C15      CTL5    -0.350000       12.0110           0
      3322 MEMB     26       POPC     H15A     HL       0.250000       1.00800           0
      3323 MEMB     26       POPC     H15B     HL       0.250000       1.00800           0
      3324 MEMB     26       POPC     H15C     HL       0.250000       1.00800           0
      3325 MEMB     26       POPC     C11      CTL2    -0.800000E-01   12.0110           0
      3326 MEMB     26       POPC     H11A     HAL2     0.900000E-01   1.00800           0
      3327 MEMB     26       POPC     H11B     HAL2     0.900000E-01   1.00800           0
      3328 MEMB     26       POPC     P        PL        1.50000       30.9740           0
      3329 MEMB     26       POPC     O13      O2L     -0.780000       15.9994           0
      3330 MEMB     26       POPC     O14      O2L     -0.780000       15.9994           0
      3331 MEMB     26       POPC     O12      OSLP    -0.570000       15.9994           0
      3332 MEMB     26       POPC     O11      OSLP    -0.570000       15.9994           0
      3333 MEMB     26       POPC     C1       CTL2    -0.800000E-01   12.0110           0
      3334 MEMB     26       POPC     HA       HAL2     0.900000E-01   1.00800           0
      3335 MEMB     26       POPC     HB       HAL2     0.900000E-01   1.00800           0
      3336 MEMB     26       POPC     C2       CTL1     0.170000       12.0110           0
      3337 MEMB     26       POPC     HS       HAL1     0.900000E-01   1.00800           0
      3338 MEMB     26       POPC     O21      OSL     -0.490000       15.9994           0
      3339 MEMB     26       POPC     C21      CL       0.900000       12.0110           0
      3340 MEMB     26       POPC     O22      OBL     -0.630000       15.9994           0
      3341 MEMB     26       POPC     C22      CTL2    -0.220000       12.0110           0
      3342 MEMB     26       POPC     H2R      HAL2     0.900000E-01   1.00800           0
      3343 MEMB     26       POPC     H2S      HAL2     0.900000E-01   1.00800           0
      3344 MEMB     26       POPC     C3       CTL2     0.800000E-01   12.0110           0
      3345 MEMB     26       POPC     HX       HAL2     0.900000E-01   1.00800           0
      3346 MEMB     26       POPC     HY       HAL2     0.900000E-01   1.00800           0
      3347 MEMB     26       POPC     O31      OSL     -0.490000       15.9994           0
      3348 MEMB     26       POPC     C31      CL       0.900000       12.0110           0
      3349 MEMB     26       POPC     O32      OBL     -0.630000       15.9994           0
      3350 MEMB     26       POPC     C32      CTL2    -0.220000       12.0110           0
      3351 MEMB     26       POPC     H2X      HAL2     0.900000E-01   1.00800           0
      3352 MEMB     26       POPC     H2Y      HAL2     0.900000E-01   1.00800           0
      3353 MEMB     26       POPC     C23      CTL2    -0.180000       12.0110           0
      3354 MEMB     26       POPC     H3R      HAL2     0.900000E-01   1.00800           0
      3355 MEMB     26       POPC     H3S      HAL2     0.900000E-01   1.00800           0
      3356 MEMB     26       POPC     C24      CTL2    -0.180000       12.0110           0
      3357 MEMB     26       POPC     H4R      HAL2     0.900000E-01   1.00800           0
      3358 MEMB     26       POPC     H4S      HAL2     0.900000E-01   1.00800           0
      3359 MEMB     26       POPC     C25      CTL2    -0.180000       12.0110           0
      3360 MEMB     26       POPC     H5R      HAL2     0.900000E-01   1.00800           0
      3361 MEMB     26       POPC     H5S      HAL2     0.900000E-01   1.00800           0
      3362 MEMB     26       POPC     C26      CTL2    -0.180000       12.0110           0
      3363 MEMB     26       POPC     H6R      HAL2     0.900000E-01   1.00800           0
      3364 MEMB     26       POPC     H6S      HAL2     0.900000E-01   1.00800           0
      3365 MEMB     26       POPC     C27      CTL2    -0.180000       12.0110           0
      3366 MEMB     26       POPC     H7R      HAL2     0.900000E-01   1.00800           0
      3367 MEMB     26       POPC     H7S      HAL2     0.900000E-01   1.00800           0
      3368 MEMB     26       POPC     C28      CTL2    -0.180000       12.0110           0
      3369 MEMB     26       POPC     H8R      HAL2     0.900000E-01   1.00800           0
      3370 MEMB     26       POPC     H8S      HAL2     0.900000E-01   1.00800           0
      3371 MEMB     26       POPC     C29      CEL1    -0.150000       12.0110           0
      3372 MEMB     26       POPC     H91      HEL1     0.150000       1.00800           0
      3373 MEMB     26       POPC     C210     CEL1    -0.150000       12.0110           0
      3374 MEMB     26       POPC     H101     HEL1     0.150000       1.00800           0
      3375 MEMB     26       POPC     C211     CTL2    -0.180000       12.0110           0
      3376 MEMB     26       POPC     H11R     HAL2     0.900000E-01   1.00800           0
      3377 MEMB     26       POPC     H11S     HAL2     0.900000E-01   1.00800           0
      3378 MEMB     26       POPC     C212     CTL2    -0.180000       12.0110           0
      3379 MEMB     26       POPC     H12R     HAL2     0.900000E-01   1.00800           0
      3380 MEMB     26       POPC     H12S     HAL2     0.900000E-01   1.00800           0
      3381 MEMB     26       POPC     C213     CTL2    -0.180000       12.0110           0
      3382 MEMB     26       POPC     H13R     HAL2     0.900000E-01   1.00800           0
      3383 MEMB     26       POPC     H13S     HAL2     0.900000E-01   1.00800           0
      3384 MEMB     26       POPC     C214     CTL2    -0.180000       12.0110           0
      3385 MEMB     26       POPC     H14R     HAL2     0.900000E-01   1.00800           0
      3386 MEMB     26       POPC     H14S     HAL2     0.900000E-01   1.00800           0
      3387 MEMB     26       POPC     C215     CTL2    -0.180000       12.0110           0
      3388 MEMB     26       POPC     H15R     HAL2     0.900000E-01   1.00800           0
      3389 MEMB     26       POPC     H15S     HAL2     0.900000E-01   1.00800           0
      3390 MEMB     26       POPC     C216     CTL2    -0.180000       12.0110           0
      3391 MEMB     26       POPC     H16R     HAL2     0.900000E-01   1.00800           0
      3392 MEMB     26       POPC     H16S     HAL2     0.900000E-01   1.00800           0
      3393 MEMB     26       POPC     C217     CTL2    -0.180000       12.0110           0
      3394 MEMB     26       POPC     H17R     HAL2     0.900000E-01   1.00800           0
      3395 MEMB     26       POPC     H17S     HAL2     0.900000E-01   1.00800           0
      3396 MEMB     26       POPC     C218     CTL3    -0.270000       12.0110           0
      3397 MEMB     26       POPC     H18R     HAL3     0.900000E-01   1.00800           0
      3398 MEMB     26       POPC     H18S     HAL3     0.900000E-01   1.00800           0
      3399 MEMB     26       POPC     H18T     HAL3     0.900000E-01   1.00800           0
      3400 MEMB     26       POPC     C33      CTL2    -0.180000       12.0110           0
      3401 MEMB     26       POPC     H3X      HAL2     0.900000E-01   1.00800           0
      3402 MEMB     26       POPC     H3Y      HAL2     0.900000E-01   1.00800           0
      3403 MEMB     26       POPC     C34      CTL2    -0.180000       12.0110           0
      3404 MEMB     26       POPC     H4X      HAL2     0.900000E-01   1.00800           0
      3405 MEMB     26       POPC     H4Y      HAL2     0.900000E-01   1.00800           0
      3406 MEMB     26       POPC     C35      CTL2    -0.180000       12.0110           0
      3407 MEMB     26       POPC     H5X      HAL2     0.900000E-01   1.00800           0
      3408 MEMB     26       POPC     H5Y      HAL2     0.900000E-01   1.00800           0
      3409 MEMB     26       POPC     C36      CTL2    -0.180000       12.0110           0
      3410 MEMB     26       POPC     H6X      HAL2     0.900000E-01   1.00800           0
      3411 MEMB     26       POPC     H6Y      HAL2     0.900000E-01   1.00800           0
      3412 MEMB     26       POPC     C37      CTL2    -0.180000       12.0110           0
      3413 MEMB     26       POPC     H7X      HAL2     0.900000E-01   1.00800           0
      3414 MEMB     26       POPC     H7Y      HAL2     0.900000E-01   1.00800           0
      3415 MEMB     26       POPC     C38      CTL2    -0.180000       12.0110           0
      3416 MEMB     26       POPC     H8X      HAL2     0.900000E-01   1.00800           0
      3417 MEMB     26       POPC     H8Y      HAL2     0.900000E-01   1.00800           0
      3418 MEMB     26       POPC     C39      CTL2    -0.180000       12.0110           0
      3419 MEMB     26       POPC     H9X      HAL2     0.900000E-01   1.00800           0
      3420 MEMB     26       POPC     H9Y      HAL2     0.900000E-01   1.00800           0
      3421 MEMB     26       POPC     C310     CTL2    -0.180000       12.0110           0
      3422 MEMB     26       POPC     H10X     HAL2     0.900000E-01   1.00800           0
      3423 MEMB     26       POPC     H10Y     HAL2     0.900000E-01   1.00800           0
      3424 MEMB     26       POPC     C311     CTL2    -0.180000       12.0110           0
      3425 MEMB     26       POPC     H11X     HAL2     0.900000E-01   1.00800           0
      3426 MEMB     26       POPC     H11Y     HAL2     0.900000E-01   1.00800           0
      3427 MEMB     26       POPC     C312     CTL2    -0.180000       12.0110           0
      3428 MEMB     26       POPC     H12X     HAL2     0.900000E-01   1.00800           0
      3429 MEMB     26       POPC     H12Y     HAL2     0.900000E-01   1.00800           0
      3430 MEMB     26       POPC     C313     CTL2    -0.180000       12.0110           0
      3431 MEMB     26       POPC     H13X     HAL2     0.900000E-01   1.00800           0
      3432 MEMB     26       POPC     H13Y     HAL2     0.900000E-01   1.00800           0
      3433 MEMB     26       POPC     C314     CTL2    -0.180000       12.0110           0
      3434 MEMB     26       POPC     H14X     HAL2     0.900000E-01   1.00800           0
      3435 MEMB     26       POPC     H14Y     HAL2     0.900000E-01   1.00800           0
      3436 MEMB     26       POPC     C315     CTL2    -0.180000       12.0110           0
      3437 MEMB     26       POPC     H15X     HAL2     0.900000E-01   1.00800           0
      3438 MEMB     26       POPC     H15Y     HAL2     0.900000E-01   1.00800           0
      3439 MEMB     26       POPC     C316     CTL3    -0.270000       12.0110           0
      3440 MEMB     26       POPC     H16X     HAL3     0.900000E-01   1.00800           0
      3441 MEMB     26       POPC     H16Y     HAL3     0.900000E-01   1.00800           0
      3442 MEMB     26       POPC     H16Z     HAL3     0.900000E-01   1.00800           0
      3443 MEMB     27       POPC     N        NTL     -0.600000       14.0070           0
      3444 MEMB     27       POPC     C12      CTL2    -0.100000       12.0110           0
      3445 MEMB     27       POPC     H12A     HL       0.250000       1.00800           0
      3446 MEMB     27       POPC     H12B     HL       0.250000       1.00800           0
      3447 MEMB     27       POPC     C13      CTL5    -0.350000       12.0110           0
      3448 MEMB     27       POPC     H13A     HL       0.250000       1.00800           0
      3449 MEMB     27       POPC     H13B     HL       0.250000       1.00800           0
      3450 MEMB     27       POPC     H13C     HL       0.250000       1.00800           0
      3451 MEMB     27       POPC     C14      CTL5    -0.350000       12.0110           0
      3452 MEMB     27       POPC     H14A     HL       0.250000       1.00800           0
      3453 MEMB     27       POPC     H14B     HL       0.250000       1.00800           0
      3454 MEMB     27       POPC     H14C     HL       0.250000       1.00800           0
      3455 MEMB     27       POPC     C15      CTL5    -0.350000       12.0110           0
      3456 MEMB     27       POPC     H15A     HL       0.250000       1.00800           0
      3457 MEMB     27       POPC     H15B     HL       0.250000       1.00800           0
      3458 MEMB     27       POPC     H15C     HL       0.250000       1.00800           0
      3459 MEMB     27       POPC     C11      CTL2    -0.800000E-01   12.0110           0
      3460 MEMB     27       POPC     H11A     HAL2     0.900000E-01   1.00800           0
      3461 MEMB     27       POPC     H11B     HAL2     0.900000E-01   1.00800           0
      3462 MEMB     27       POPC     P        PL        1.50000       30.9740           0
      3463 MEMB     27       POPC     O13      O2L     -0.780000       15.9994           0
      3464 MEMB     27       POPC     O14      O2L     -0.780000       15.9994           0
      3465 MEMB     27       POPC     O12      OSLP    -0.570000       15.9994           0
      3466 MEMB     27       POPC     O11      OSLP    -0.570000       15.9994           0
      3467 MEMB     27       POPC     C1       CTL2    -0.800000E-01   12.0110           0
      3468 MEMB     27       POPC     HA       HAL2     0.900000E-01   1.00800           0
      3469 MEMB     27       POPC     HB       HAL2     0.900000E-01   1.00800           0
      3470 MEMB     27       POPC     C2       CTL1     0.170000       12.0110           0
      3471 MEMB     27       POPC     HS       HAL1     0.900000E-01   1.00800           0
      3472 MEMB     27       POPC     O21      OSL     -0.490000       15.9994           0
      3473 MEMB     27       POPC     C21      CL       0.900000       12.0110           0
      3474 MEMB     27       POPC     O22      OBL     -0.630000       15.9994           0
      3475 MEMB     27       POPC     C22      CTL2    -0.220000       12.0110           0
      3476 MEMB     27       POPC     H2R      HAL2     0.900000E-01   1.00800           0
      3477 MEMB     27       POPC     H2S      HAL2     0.900000E-01   1.00800           0
      3478 MEMB     27       POPC     C3       CTL2     0.800000E-01   12.0110           0
      3479 MEMB     27       POPC     HX       HAL2     0.900000E-01   1.00800           0
      3480 MEMB     27       POPC     HY       HAL2     0.900000E-01   1.00800           0
      3481 MEMB     27       POPC     O31      OSL     -0.490000       15.9994           0
      3482 MEMB     27       POPC     C31      CL       0.900000       12.0110           0
      3483 MEMB     27       POPC     O32      OBL     -0.630000       15.9994           0
      3484 MEMB     27       POPC     C32      CTL2    -0.220000       12.0110           0
      3485 MEMB     27       POPC     H2X      HAL2     0.900000E-01   1.00800           0
      3486 MEMB     27       POPC     H2Y      HAL2     0.900000E-01   1.00800           0
      3487 MEMB     27       POPC     C23      CTL2    -0.180000       12.0110           0
      3488 MEMB     27       POPC     H3R      HAL2     0.900000E-01   1.00800           0
      3489 MEMB     27       POPC     H3S      HAL2     0.900000E-01   1.00800           0
      3490 MEMB     27       POPC     C24      CTL2    -0.180000       12.0110           0
      3491 MEMB     27       POPC     H4R      HAL2     0.900000E-01   1.00800           0
      3492 MEMB     27       POPC     H4S      HAL2     0.900000E-01   1.00800           0
      3493 MEMB     27       POPC     C25      CTL2    -0.180000       12.0110           0
      3494 MEMB     27       POPC     H5R      HAL2     0.900000E-01   1.00800           0
      3495 MEMB     27       POPC     H5S      HAL2     0.900000E-01   1.00800           0
      3496 MEMB     27       POPC     C26      CTL2    -0.180000       12.0110           0
      3497 MEMB     27       POPC     H6R      HAL2     0.900000E-01   1.00800           0
      3498 MEMB     27       POPC     H6S      HAL2     0.900000E-01   1.00800           0
      3499 MEMB     27       POPC     C27      CTL2    -0.180000       12.0110           0
      3500 MEMB     27       POPC     H7R      HAL2     0.900000E-01   1.00800           0
      3501 MEMB     27       POPC     H7S      HAL2     0.900000E-01   1.00800           0
      3502 MEMB     27       POPC     C28      CTL2    -0.180000       12.0110           0
      3503 MEMB     27       POPC     H8R      HAL2     0.900000E-01   1.00800           0
      3504 MEMB     27       POPC     H8S      HAL2     0.900000E-01   1.00800           0
      3505 MEMB     27       POPC     C29      CEL1    -0.150000       12.0110           0
      3506 MEMB     27       POPC     H91      HEL1     0.150000       1.00800           0
      3507 MEMB     27       POPC     C210     CEL1    -0.150000       12.0110           0
      3508 MEMB     27       POPC     H101     HEL1     0.150000       1.00800           0
      3509 MEMB     27       POPC     C211     CTL2    -0.180000       12.0110           0
      3510 MEMB     27       POPC     H11R     HAL2     0.900000E-01   1.00800           0
      3511 MEMB     27       POPC     H11S     HAL2     0.900000E-01   1.00800           0
      3512 MEMB     27       POPC     C212     CTL2    -0.180000       12.0110           0
      3513 MEMB     27       POPC     H12R     HAL2     0.900000E-01   1.00800           0
      3514 MEMB     27       POPC     H12S     HAL2     0.900000E-01   1.00800           0
      3515 MEMB     27       POPC     C213     CTL2    -0.180000       12.0110           0
      3516 MEMB     27       POPC     H13R     HAL2     0.900000E-01   1.00800           0
      3517 MEMB     27       POPC     H13S     HAL2     0.900000E-01   1.00800           0
      3518 MEMB     27       POPC     C214     CTL2    -0.180000       12.0110           0
      3519 MEMB     27       POPC     H14R     HAL2     0.900000E-01   1.00800           0
      3520 MEMB     27       POPC     H14S     HAL2     0.900000E-01   1.00800           0
      3521 MEMB     27       POPC     C215     CTL2    -0.180000       12.0110           0
      3522 MEMB     27       POPC     H15R     HAL2     0.900000E-01   1.00800           0
      3523 MEMB     27       POPC     H15S     HAL2     0.900000E-01   1.00800           0
      3524 MEMB     27       POPC     C216     CTL2    -0.180000       12.0110           0
      3525 MEMB     27       POPC     H16R     HAL2     0.900000E-01   1.00800           0
      3526 MEMB     27       POPC     H16S     HAL2     0.900000E-01   1.00800           0
      3527 MEMB     27       POPC     C217     CTL2    -0.180000       12.0110           0
      3528 MEMB     27       POPC     H17R     HAL2     0.900000E-01   1.00800           0
      3529 MEMB     27       POPC     H17S     HAL2     0.900000E-01   1.00800           0
      3530 MEMB     27       POPC     C218     CTL3    -0.270000       12.0110           0
      3531 MEMB     27       POPC     H18R     HAL3     0.900000E-01   1.00800           0
      3532 MEMB     27       POPC     H18S     HAL3     0.900000E-01   1.00800           0
      3533 MEMB     27       POPC     H18T     HAL3     0.900000E-01   1.00800           0
      3534 MEMB     27       POPC     C33      CTL2    -0.180000       12.0110           0
      3535 MEMB     27       POPC     H3X      HAL2     0.900000E-01   1.00800           0
      3536 MEMB     27       POPC     H3Y      HAL2     0.900000E-01   1.00800           0
      3537 MEMB     27       POPC     C34      CTL2    -0.180000       12.0110           0
      3538 MEMB     27       POPC     H4X      HAL2     0.900000E-01   1.00800           0
      3539 MEMB     27       POPC     H4Y      HAL2     0.900000E-01   1.00800           0
      3540 MEMB     27       POPC     C35      CTL2    -0.180000       12.0110           0
      3541 MEMB     27       POPC     H5X      HAL2     0.900000E-01   1.00800           0
      3542 MEMB     27       POPC     H5Y      HAL2     0.900000E-01   1.00800           0
      3543 MEMB     27       POPC     C36      CTL2    -0.180000       12.0110           0
      3544 MEMB     27       POPC     H6X      HAL2     0.900000E-01   1.00800           0
      3545 MEMB     27       POPC     H6Y      HAL2     0.900000E-01   1.00800           0
      3546 MEMB     27       POPC     C37      CTL2    -0.180000       12.0110           0
      3547 MEMB     27       POPC     H7X      HAL2     0.900000E-01   1.00800           0
      3548 MEMB     27       POPC     H7Y      HAL2     0.900000E-01   1.00800           0
      3549 MEMB     27       POPC     C38      CTL2    -0.180000       12.0110           0
      3550 MEMB     27       POPC     H8X      HAL2     0.900000E-01   1.00800           0
      3551 MEMB     27       POPC     H8Y      HAL2     0.900000E-01   1.00800           0
      3552 MEMB     27       POPC     C39      CTL2    -0.180000       12.0110           0
      3553 MEMB     27       POPC     H9X      HAL2     0.900000E-01   1.00800           0
      3554 MEMB     27       POPC     H9Y      HAL2     0.900000E-01   1.00800           0
      3555 MEMB     27       POPC     C310     CTL2    -0.180000       12.0110           0
      3556 MEMB     27       POPC     H10X     HAL2     0.900000E-01   1.00800           0
      3557 MEMB     27       POPC     H10Y     HAL2     0.900000E-01   1.00800           0
      3558 MEMB     27       POPC     C311     CTL2    -0.180000       12.0110           0
      3559 MEMB     27       POPC     H11X     HAL2     0.900000E-01   1.00800           0
      3560 MEMB     27       POPC     H11Y     HAL2     0.900000E-01   1.00800           0
      3561 MEMB     27       POPC     C312     CTL2    -0.180000       12.0110           0
      3562 MEMB     27       POPC     H12X     HAL2     0.900000E-01   1.00800           0
      3563 MEMB     27       POPC     H12Y     HAL2     0.900000E-01   1.00800           0
      3564 MEMB     27       POPC     C313     CTL2    -0.180000       12.0110           0
      3565 MEMB     27       POPC     H13X     HAL2     0.900000E-01   1.00800           0
      3566 MEMB     27       POPC     H13Y     HAL2     0.900000E-01   1.00800           0
      3567 MEMB     27       POPC     C314     CTL2    -0.180000       12.0110           0
      3568 MEMB     27       POPC     H14X     HAL2     0.900000E-01   1.00800           0
      3569 MEMB     27       POPC     H14Y     HAL2     0.900000E-01   1.00800           0
      3570 MEMB     27       POPC     C315     CTL2    -0.180000       12.0110           0
      3571 MEMB     27       POPC     H15X     HAL2     0.900000E-01   1.00800           0
      3572 MEMB     27       POPC     H15Y     HAL2     0.900000E-01   1.00800           0
      3573 MEMB     27       POPC     C316     CTL3    -0.270000       12.0110           0
      3574 MEMB     27       POPC     H16X     HAL3     0.900000E-01   1.00800           0
      3575 MEMB     27       POPC     H16Y     HAL3     0.900000E-01   1.00800           0
      3576 MEMB     27       POPC     H16Z     HAL3     0.900000E-01   1.00800           0
      3577 MEMB     28       POPC     N        NTL     -0.600000       14.0070           0
      3578 MEMB     28       POPC     C12      CTL2    -0.100000       12.0110           0
      3579 MEMB     28       POPC     H12A     HL       0.250000       1.00800           0
      3580 MEMB     28       POPC     H12B     HL       0.250000       1.00800           0
      3581 MEMB     28       POPC     C13      CTL5    -0.350000       12.0110           0
      3582 MEMB     28       POPC     H13A     HL       0.250000       1.00800           0
      3583 MEMB     28       POPC     H13B     HL       0.250000       1.00800           0
      3584 MEMB     28       POPC     H13C     HL       0.250000       1.00800           0
      3585 MEMB     28       POPC     C14      CTL5    -0.350000       12.0110           0
      3586 MEMB     28       POPC     H14A     HL       0.250000       1.00800           0
      3587 MEMB     28       POPC     H14B     HL       0.250000       1.00800           0
      3588 MEMB     28       POPC     H14C     HL       0.250000       1.00800           0
      3589 MEMB     28       POPC     C15      CTL5    -0.350000       12.0110           0
      3590 MEMB     28       POPC     H15A     HL       0.250000       1.00800           0
      3591 MEMB     28       POPC     H15B     HL       0.250000       1.00800           0
      3592 MEMB     28       POPC     H15C     HL       0.250000       1.00800           0
      3593 MEMB     28       POPC     C11      CTL2    -0.800000E-01   12.0110           0
      3594 MEMB     28       POPC     H11A     HAL2     0.900000E-01   1.00800           0
      3595 MEMB     28       POPC     H11B     HAL2     0.900000E-01   1.00800           0
      3596 MEMB     28       POPC     P        PL        1.50000       30.9740           0
      3597 MEMB     28       POPC     O13      O2L     -0.780000       15.9994           0
      3598 MEMB     28       POPC     O14      O2L     -0.780000       15.9994           0
      3599 MEMB     28       POPC     O12      OSLP    -0.570000       15.9994           0
      3600 MEMB     28       POPC     O11      OSLP    -0.570000       15.9994           0
      3601 MEMB     28       POPC     C1       CTL2    -0.800000E-01   12.0110           0
      3602 MEMB     28       POPC     HA       HAL2     0.900000E-01   1.00800           0
      3603 MEMB     28       POPC     HB       HAL2     0.900000E-01   1.00800           0
      3604 MEMB     28       POPC     C2       CTL1     0.170000       12.0110           0
      3605 MEMB     28       POPC     HS       HAL1     0.900000E-01   1.00800           0
      3606 MEMB     28       POPC     O21      OSL     -0.490000       15.9994           0
      3607 MEMB     28       POPC     C21      CL       0.900000       12.0110           0
      3608 MEMB     28       POPC     O22      OBL     -0.630000       15.9994           0
      3609 MEMB     28       POPC     C22      CTL2    -0.220000       12.0110           0
      3610 MEMB     28       POPC     H2R      HAL2     0.900000E-01   1.00800           0
      3611 MEMB     28       POPC     H2S      HAL2     0.900000E-01   1.00800           0
      3612 MEMB     28       POPC     C3       CTL2     0.800000E-01   12.0110           0
      3613 MEMB     28       POPC     HX       HAL2     0.900000E-01   1.00800           0
      3614 MEMB     28       POPC     HY       HAL2     0.900000E-01   1.00800           0
      3615 MEMB     28       POPC     O31      OSL     -0.490000       15.9994           0
      3616 MEMB     28       POPC     C31      CL       0.900000       12.0110           0
      3617 MEMB     28       POPC     O32      OBL     -0.630000       15.9994           0
      3618 MEMB     28       POPC     C32      CTL2    -0.220000       12.0110           0
      3619 MEMB     28       POPC     H2X      HAL2     0.900000E-01   1.00800           0
      3620 MEMB     28       POPC     H2Y      HAL2     0.900000E-01   1.00800           0
      3621 MEMB     28       POPC     C23      CTL2    -0.180000       12.0110           0
      3622 MEMB     28       POPC     H3R      HAL2     0.900000E-01   1.00800           0
      3623 MEMB     28       POPC     H3S      HAL2     0.900000E-01   1.00800           0
      3624 MEMB     28       POPC     C24      CTL2    -0.180000       12.0110           0
      3625 MEMB     28       POPC     H4R      HAL2     0.900000E-01   1.00800           0
      3626 MEMB     28       POPC     H4S      HAL2     0.900000E-01   1.00800           0
      3627 MEMB     28       POPC     C25      CTL2    -0.180000       12.0110           0
      3628 MEMB     28       POPC     H5R      HAL2     0.900000E-01   1.00800           0
      3629 MEMB     28       POPC     H5S      HAL2     0.900000E-01   1.00800           0
      3630 MEMB     28       POPC     C26      CTL2    -0.180000       12.0110           0
      3631 MEMB     28       POPC     H6R      HAL2     0.900000E-01   1.00800           0
      3632 MEMB     28       POPC     H6S      HAL2     0.900000E-01   1.00800           0
      3633 MEMB     28       POPC     C27      CTL2    -0.180000       12.0110           0
      3634 MEMB     28       POPC     H7R      HAL2     0.900000E-01   1.00800           0
      3635 MEMB     28       POPC     H7S      HAL2     0.900000E-01   1.00800           0
      3636 MEMB     28       POPC     C28      CTL2    -0.180000       12.0110           0
      3637 MEMB     28       POPC     H8R      HAL2     0.900000E-01   1.00800           0
      3638 MEMB     28       POPC     H8S      HAL2     0.900000E-01   1.00800           0
      3639 MEMB     28       POPC     C29      CEL1    -0.150000       12.0110           0
      3640 MEMB     28       POPC     H91      HEL1     0.150000       1.00800           0
      3641 MEMB     28       POPC     C210     CEL1    -0.150000       12.0110           0
      3642 MEMB     28       POPC     H101     HEL1     0.150000       1.00800           0
      3643 MEMB     28       POPC     C211     CTL2    -0.180000       12.0110           0
      3644 MEMB     28       POPC     H11R     HAL2     0.900000E-01   1.00800           0
      3645 MEMB     28       POPC     H11S     HAL2     0.900000E-01   1.00800           0
      3646 MEMB     28       POPC     C212     CTL2    -0.180000       12.0110           0
      3647 MEMB     28       POPC     H12R     HAL2     0.900000E-01   1.00800           0
      3648 MEMB     28       POPC     H12S     HAL2     0.900000E-01   1.00800           0
      3649 MEMB     28       POPC     C213     CTL2    -0.180000       12.0110           0
      3650 MEMB     28       POPC     H13R     HAL2     0.900000E-01   1.00800           0
      3651 MEMB     28       POPC     H13S     HAL2     0.900000E-01   1.00800           0
      3652 MEMB     28       POPC     C214     CTL2    -0.180000       12.0110           0
      3653 MEMB     28       POPC     H14R     HAL2     0.900000E-01   1.00800           0
      3654 MEMB     28       POPC     H14S     HAL2     0.900000E-01   1.00800           0
      3655 MEMB     28       POPC     C215     CTL2    -0.180000       12.0110           0
      3656 MEMB     28       POPC     H15R     HAL2     0.900000E-01   1.00800           0
      3657 MEMB     28       POPC     H15S     HAL2     0.900000E-01   1.00800           0
      3658 MEMB     28       POPC     C216     CTL2    -0.180000       12.0110           0
      3659 MEMB     28       POPC     H16R     HAL2     0.900000E-01   1.00800           0
      3660 MEMB     28       POPC     H16S     HAL2     0.900000E-01   1.00800           0
      3661 MEMB     28       POPC     C217     CTL2    -0.180000       12.0110           0
      3662 MEMB     28       POPC     H17R     HAL2     0.900000E-01   1.00800           0
      3663 MEMB     28       POPC     H17S     HAL2     0.900000E-01   1.00800           0
      3664 MEMB     28       POPC     C218     CTL3    -0.270000       12.0110           0
      3665 MEMB     28       POPC     H18R     HAL3     0.900000E-01   1.00800           0
      3666 MEMB     28       POPC     H18S     HAL3     0.900000E-01   1.00800           0
      3667 MEMB     28       POPC     H18T     HAL3     0.900000E-01   1.00800           0
      3668 MEMB     28       POPC     C33      CTL2    -0.180000       12.0110           0
      3669 MEMB     28       POPC     H3X      HAL2     0.900000E-01   1.00800           0
      3670 MEMB     28       POPC     H3Y      HAL2     0.900000E-01   1.00800           0
      3671 MEMB     28       POPC     C34      CTL2    -0.180000       12.0110           0
      3672 MEMB     28       POPC     H4X      HAL2     0.900000E-01   1.00800           0
      3673 MEMB     28       POPC     H4Y      HAL2     0.900000E-01   1.00800           0
      3674 MEMB     28       POPC     C35      CTL2    -0.180000       12.0110           0
      3675 MEMB     28       POPC     H5X      HAL2     0.900000E-01   1.00800           0
      3676 MEMB     28       POPC     H5Y      HAL2     0.900000E-01   1.00800           0
      3677 MEMB     28       POPC     C36      CTL2    -0.180000       12.0110           0
      3678 MEMB     28       POPC     H6X      HAL2     0.900000E-01   1.00800           0
      3679 MEMB     28       POPC     H6Y      HAL2     0.900000E-01   1.00800           0
      3680 MEMB     28       POPC     C37      CTL2    -0.180000       12.0110           0
      3681 MEMB     28       POPC     H7X      HAL2     0.900000E-01   1.00800           0
      3682 MEMB     28       POPC     H7Y      HAL2     0.900000E-01   1.00800           0
      3683 MEMB     28       POPC     C38      CTL2    -0.180000       12.0110           0
      3684 MEMB     28       POPC     H8X      HAL2     0.900000E-01   1.00800           0
      3685 MEMB     28       POPC     H8Y      HAL2     0.900000E-01   1.00800           0
      3686 MEMB     28       POPC     C39      CTL2    -0.180000       12.0110           0
      3687 MEMB     28       POPC     H9X      HAL2     0.900000E-01   1.00800           0
      3688 MEMB     28       POPC     H9Y      HAL2     0.900000E-01   1.00800           0
      3689 MEMB     28       POPC     C310     CTL2    -0.180000       12.0110           0
      3690 MEMB     28       POPC     H10X     HAL2     0.900000E-01   1.00800           0
      3691 MEMB     28       POPC     H10Y     HAL2     0.900000E-01   1.00800           0
      3692 MEMB     28       POPC     C311     CTL2    -0.180000       12.0110           0
      3693 MEMB     28       POPC     H11X     HAL2     0.900000E-01   1.00800           0
      3694 MEMB     28       POPC     H11Y     HAL2     0.900000E-01   1.00800           0
      3695 MEMB     28       POPC     C312     CTL2    -0.180000       12.0110           0
      3696 MEMB     28       POPC     H12X     HAL2     0.900000E-01   1.00800           0
      3697 MEMB     28       POPC     H12Y     HAL2     0.900000E-01   1.00800           0
      3698 MEMB     28       POPC     C313     CTL2    -0.180000       12.0110           0
      3699 MEMB     28       POPC     H13X     HAL2     0.900000E-01   1.00800           0
      3700 MEMB     28       POPC     H13Y     HAL2     0.900000E-01   1.00800           0
      3701 MEMB     28       POPC     C314     CTL2    -0.180000       12.0110           0
      3702 MEMB     28       POPC     H14X     HAL2     0.900000E-01   1.00800           0
      3703 MEMB     28       POPC     H14Y     HAL2     0.900000E-01   1.00800           0
      3704 MEMB     28       POPC     C315     CTL2    -0.180000       12.0110           0
      3705 MEMB     28       POPC     H15X     HAL2     0.900000E-01   1.00800           0
      3706 MEMB     28       POPC     H15Y     HAL2     0.900000E-01   1.00800           0
      3707 MEMB     28       POPC     C316     CTL3    -0.270000       12.0110           0
      3708 MEMB     28       POPC     H16X     HAL3     0.900000E-01   1.00800           0
      3709 MEMB     28       POPC     H16Y     HAL3     0.900000E-01   1.00800           0
      3710 MEMB     28       POPC     H16Z     HAL3     0.900000E-01   1.00800           0
      3711 MEMB     29       POPC     N        NTL     -0.600000       14.0070           0
      3712 MEMB     29       POPC     C12      CTL2    -0.100000       12.0110           0
      3713 MEMB     29       POPC     H12A     HL       0.250000       1.00800           0
      3714 MEMB     29       POPC     H12B     HL       0.250000       1.00800           0
      3715 MEMB     29       POPC     C13      CTL5    -0.350000       12.0110           0
      3716 MEMB     29       POPC     H13A     HL       0.250000       1.00800           0
      3717 MEMB     29       POPC     H13B     HL       0.250000       1.00800           0
      3718 MEMB     29       POPC     H13C     HL       0.250000       1.00800           0
      3719 MEMB     29       POPC     C14      CTL5    -0.350000       12.0110           0
      3720 MEMB     29       POPC     H14A     HL       0.250000       1.00800           0
      3721 MEMB     29       POPC     H14B     HL       0.250000       1.00800           0
      3722 MEMB     29       POPC     H14C     HL       0.250000       1.00800           0
      3723 MEMB     29       POPC     C15      CTL5    -0.350000       12.0110           0
      3724 MEMB     29       POPC     H15A     HL       0.250000       1.00800           0
      3725 MEMB     29       POPC     H15B     HL       0.250000       1.00800           0
      3726 MEMB     29       POPC     H15C     HL       0.250000       1.00800           0
      3727 MEMB     29       POPC     C11      CTL2    -0.800000E-01   12.0110           0
      3728 MEMB     29       POPC     H11A     HAL2     0.900000E-01   1.00800           0
      3729 MEMB     29       POPC     H11B     HAL2     0.900000E-01   1.00800           0
      3730 MEMB     29       POPC     P        PL        1.50000       30.9740           0
      3731 MEMB     29       POPC     O13      O2L     -0.780000       15.9994           0
      3732 MEMB     29       POPC     O14      O2L     -0.780000       15.9994           0
      3733 MEMB     29       POPC     O12      OSLP    -0.570000       15.9994           0
      3734 MEMB     29       POPC     O11      OSLP    -0.570000       15.9994           0
      3735 MEMB     29       POPC     C1       CTL2    -0.800000E-01   12.0110           0
      3736 MEMB     29       POPC     HA       HAL2     0.900000E-01   1.00800           0
      3737 MEMB     29       POPC     HB       HAL2     0.900000E-01   1.00800           0
      3738 MEMB     29       POPC     C2       CTL1     0.170000       12.0110           0
      3739 MEMB     29       POPC     HS       HAL1     0.900000E-01   1.00800           0
      3740 MEMB     29       POPC     O21      OSL     -0.490000       15.9994           0
      3741 MEMB     29       POPC     C21      CL       0.900000       12.0110           0
      3742 MEMB     29       POPC     O22      OBL     -0.630000       15.9994           0
      3743 MEMB     29       POPC     C22      CTL2    -0.220000       12.0110           0
      3744 MEMB     29       POPC     H2R      HAL2     0.900000E-01   1.00800           0
      3745 MEMB     29       POPC     H2S      HAL2     0.900000E-01   1.00800           0
      3746 MEMB     29       POPC     C3       CTL2     0.800000E-01   12.0110           0
      3747 MEMB     29       POPC     HX       HAL2     0.900000E-01   1.00800           0
      3748 MEMB     29       POPC     HY       HAL2     0.900000E-01   1.00800           0
      3749 MEMB     29       POPC     O31      OSL     -0.490000       15.9994           0
      3750 MEMB     29       POPC     C31      CL       0.900000       12.0110           0
      3751 MEMB     29       POPC     O32      OBL     -0.630000       15.9994           0
      3752 MEMB     29       POPC     C32      CTL2    -0.220000       12.0110           0
      3753 MEMB     29       POPC     H2X      HAL2     0.900000E-01   1.00800           0
      3754 MEMB     29       POPC     H2Y      HAL2     0.900000E-01   1.00800           0
      3755 MEMB     29       POPC     C23      CTL2    -0.180000       12.0110           0
      3756 MEMB     29       POPC     H3R      HAL2     0.900000E-01   1.00800           0
      3757 MEMB     29       POPC     H3S      HAL2     0.900000E-01   1.00800           0
      3758 MEMB     29       POPC     C24      CTL2    -0.180000       12.0110           0
      3759 MEMB     29       POPC     H4R      HAL2     0.900000E-01   1.00800           0
      3760 MEMB     29       POPC     H4S      HAL2     0.900000E-01   1.00800           0
      3761 MEMB     29       POPC     C25      CTL2    -0.180000       12.0110           0
      3762 MEMB     29       POPC     H5R      HAL2     0.900000E-01   1.00800           0
      3763 MEMB     29       POPC     H5S      HAL2     0.900000E-01   1.00800           0
      3764 MEMB     29       POPC     C26      CTL2    -0.180000       12.0110           0
      3765 MEMB     29       POPC     H6R      HAL2     0.900000E-01   1.00800           0
      3766 MEMB     29       POPC     H6S      HAL2     0.900000E-01   1.00800           0
      3767 MEMB     29       POPC     C27      CTL2    -0.180000       12.0110           0
      3768 MEMB     29       POPC     H7R      HAL2     0.900000E-01   1.00800           0
      3769 MEMB     29       POPC     H7S      HAL2     0.900000E-01   1.00800           0
      3770 MEMB     29       POPC     C28      CTL2    -0.180000       12.0110           0
      3771 MEMB     29       POPC     H8R      HAL2     0.900000E-01   1.00800           0
      3772 MEMB     29       POPC     H8S      HAL2     0.900000E-01   1.00800           0
      3773 MEMB     29       POPC     C29      CEL1    -0.150000       12.0110           0
      3774 MEMB     29       POPC     H91      HEL1     0.150000       1.00800           0
      3775 MEMB     29       POPC     C210     CEL1    -0.150000       12.0110           0
      3776 MEMB     29       POPC     H101     HEL1     0.150000       1.00800           0
      3777 MEMB     29       POPC     C211     CTL2    -0.180000       12.0110           0
      3778 MEMB     29       POPC     H11R     HAL2     0.900000E-01   1.00800           0
      3779 MEMB     29       POPC     H11S     HAL2     0.900000E-01   1.00800           0
      3780 MEMB     29       POPC     C212     CTL2    -0.180000       12.0110           0
      3781 MEMB     29       POPC     H12R     HAL2     0.900000E-01   1.00800           0
      3782 MEMB     29       POPC     H12S     HAL2     0.900000E-01   1.00800           0
      3783 MEMB     29       POPC     C213     CTL2    -0.180000       12.0110           0
      3784 MEMB     29       POPC     H13R     HAL2     0.900000E-01   1.00800           0
      3785 MEMB     29       POPC     H13S     HAL2     0.900000E-01   1.00800           0
      3786 MEMB     29       POPC     C214     CTL2    -0.180000       12.0110           0
      3787 MEMB     29       POPC     H14R     HAL2     0.900000E-01   1.00800           0
      3788 MEMB     29       POPC     H14S     HAL2     0.900000E-01   1.00800           0
      3789 MEMB     29       POPC     C215     CTL2    -0.180000       12.0110           0
      3790 MEMB     29       POPC     H15R     HAL2     0.900000E-01   1.00800           0
      3791 MEMB     29       POPC     H15S     HAL2     0.900000E-01   1.00800           0
      3792 MEMB     29       POPC     C216     CTL2    -0.180000       12.0110           0
      3793 MEMB     29       POPC     H16R     HAL2     0.900000E-01   1.00800           0
      3794 MEMB     29       POPC     H16S     HAL2     0.900000E-01   1.00800           0
      3795 MEMB     29       POPC     C217     CTL2    -0.180000       12.0110           0
      3796 MEMB     29       POPC     H17R     HAL2     0.900000E-01   1.00800           0
      3797 MEMB     29       POPC     H17S     HAL2     0.900000E-01   1.00800           0
      3798 MEMB     29       POPC     C218     CTL3    -0.270000       12.0110           0
      3799 MEMB     29       POPC     H18R     HAL3     0.900000E-01   1.00800           0
      3800 MEMB     29       POPC     H18S     HAL3     0.900000E-01   1.00800           0
      3801 MEMB     29       POPC     H18T     HAL3     0.900000E-01   1.00800           0
      3802 MEMB     29       POPC     C33      CTL2    -0.180000       12.0110           0
      3803 MEMB     29       POPC     H3X      HAL2     0.900000E-01   1.00800           0
      3804 MEMB     29       POPC     H3Y      HAL2     0.900000E-01   1.00800           0
      3805 MEMB     29       POPC     C34      CTL2    -0.180000       12.0110           0
      3806 MEMB     29       POPC     H4X      HAL2     0.900000E-01   1.00800           0
      3807 MEMB     29       POPC     H4Y      HAL2     0.900000E-01   1.00800           0
      3808 MEMB     29       POPC     C35      CTL2    -0.180000       12.0110           0
      3809 MEMB     29       POPC     H5X      HAL2     0.900000E-01   1.00800           0
      3810 MEMB     29       POPC     H5Y      HAL2     0.900000E-01   1.00800           0
      3811 MEMB     29       POPC     C36      CTL2    -0.180000       12.0110           0
      3812 MEMB     29       POPC     H6X      HAL2     0.900000E-01   1.00800           0
      3813 MEMB     29       POPC     H6Y      HAL2     0.900000E-01   1.00800           0
      3814 MEMB     29       POPC     C37      CTL2    -0.180000       12.0110           0
      3815 MEMB     29       POPC     H7X      HAL2     0.900000E-01   1.00800           0
      3816 MEMB     29       POPC     H7Y      HAL2     0.900000E-01   1.00800           0
      3817 MEMB     29       POPC     C38      CTL2    -0.180000       12.0110           0
      3818 MEMB     29       POPC     H8X      HAL2     0.900000E-01   1.00800           0
      3819 MEMB     29       POPC     H8Y      HAL2     0.900000E-01   1.00800           0
      3820 MEMB     29       POPC     C39      CTL2    -0.180000       12.0110           0
      3821 MEMB     29       POPC     H9X      HAL2     0.900000E-01   1.00800           0
      3822 MEMB     29       POPC     H9Y      HAL2     0.900000E-01   1.00800           0
      3823 MEMB     29       POPC     C310     CTL2    -0.180000       12.0110           0
      3824 MEMB     29       POPC     H10X     HAL2     0.900000E-01   1.00800           0
      3825 MEMB     29       POPC     H10Y     HAL2     0.900000E-01   1.00800           0
      3826 MEMB     29       POPC     C311     CTL2    -0.180000       12.0110           0
      3827 MEMB     29       POPC     H11X     HAL2     0.900000E-01   1.00800           0
      3828 MEMB     29       POPC     H11Y     HAL2     0.900000E-01   1.00800           0
      3829 MEMB     29       POPC     C312     CTL2    -0.180000       12.0110           0
      3830 MEMB     29       POPC     H12X     HAL2     0.900000E-01   1.00800           0
      3831 MEMB     29       POPC     H12Y     HAL2     0.900000E-01   1.00800           0
      3832 MEMB     29       POPC     C313     CTL2    -0.180000       12.0110           0
      3833 MEMB     29       POPC     H13X     HAL2     0.900000E-01   1.00800           0
      3834 MEMB     29       POPC     H13Y     HAL2     0.900000E-01   1.00800           0
      3835 MEMB     29       POPC     C314     CTL2    -0.180000       12.0110           0
      3836 MEMB     29       POPC     H14X     HAL2     0.900000E-01   1.00800           0
      3837 MEMB     29       POPC     H14Y     HAL2     0.900000E-01   1.00800           0
      3838 MEMB     29       POPC     C315     CTL2    -0.180000       12.0110           0
      3839 MEMB     29       POPC     H15X     HAL2     0.900000E-01   1.00800           0
      3840 MEMB     29       POPC     H15Y     HAL2     0.900000E-01   1.00800           0
      3841 MEMB     29       POPC     C316     CTL3    -0.270000       12.0110           0
      3842 MEMB     29       POPC     H16X     HAL3     0.900000E-01   1.00800           0
      3843 MEMB     29       POPC     H16Y     HAL3     0.900000E-01   1.00800           0
      3844 MEMB     29       POPC     H16Z     HAL3     0.900000E-01   1.00800           0
      3845 MEMB     30       POPC     N        NTL     -0.600000       14.0070           0
      3846 MEMB     30       POPC     C12      CTL2    -0.100000       12.0110           0
      3847 MEMB     30       POPC     H12A     HL       0.250000       1.00800           0
      3848 MEMB     30       POPC     H12B     HL       0.250000       1.00800           0
      3849 MEMB     30       POPC     C13      CTL5    -0.350000       12.0110           0
      3850 MEMB     30       POPC     H13A     HL       0.250000       1.00800           0
      3851 MEMB     30       POPC     H13B     HL       0.250000       1.00800           0
      3852 MEMB     30       POPC     H13C     HL       0.250000       1.00800           0
      3853 MEMB     30       POPC     C14      CTL5    -0.350000       12.0110           0
      3854 MEMB     30       POPC     H14A     HL       0.250000       1.00800           0
      3855 MEMB     30       POPC     H14B     HL       0.250000       1.00800           0
      3856 MEMB     30       POPC     H14C     HL       0.250000       1.00800           0
      3857 MEMB     30       POPC     C15      CTL5    -0.350000       12.0110           0
      3858 MEMB     30       POPC     H15A     HL       0.250000       1.00800           0
      3859 MEMB     30       POPC     H15B     HL       0.250000       1.00800           0
      3860 MEMB     30       POPC     H15C     HL       0.250000       1.00800           0
      3861 MEMB     30       POPC     C11      CTL2    -0.800000E-01   12.0110           0
      3862 MEMB     30       POPC     H11A     HAL2     0.900000E-01   1.00800           0
      3863 MEMB     30       POPC     H11B     HAL2     0.900000E-01   1.00800           0
      3864 MEMB     30       POPC     P        PL        1.50000       30.9740           0
      3865 MEMB     30       POPC     O13      O2L     -0.780000       15.9994           0
      3866 MEMB     30       POPC     O14      O2L     -0.780000       15.9994           0
      3867 MEMB     30       POPC     O12      OSLP    -0.570000       15.9994           0
      3868 MEMB     30       POPC     O11      OSLP    -0.570000       15.9994           0
      3869 MEMB     30       POPC     C1       CTL2    -0.800000E-01   12.0110           0
      3870 MEMB     30       POPC     HA       HAL2     0.900000E-01   1.00800           0
      3871 MEMB     30       POPC     HB       HAL2     0.900000E-01   1.00800           0
      3872 MEMB     30       POPC     C2       CTL1     0.170000       12.0110           0
      3873 MEMB     30       POPC     HS       HAL1     0.900000E-01   1.00800           0
      3874 MEMB     30       POPC     O21      OSL     -0.490000       15.9994           0
      3875 MEMB     30       POPC     C21      CL       0.900000       12.0110           0
      3876 MEMB     30       POPC     O22      OBL     -0.630000       15.9994           0
      3877 MEMB     30       POPC     C22      CTL2    -0.220000       12.0110           0
      3878 MEMB     30       POPC     H2R      HAL2     0.900000E-01   1.00800           0
      3879 MEMB     30       POPC     H2S      HAL2     0.900000E-01   1.00800           0
      3880 MEMB     30       POPC     C3       CTL2     0.800000E-01   12.0110           0
      3881 MEMB     30       POPC     HX       HAL2     0.900000E-01   1.00800           0
      3882 MEMB     30       POPC     HY       HAL2     0.900000E-01   1.00800           0
      3883 MEMB     30       POPC     O31      OSL     -0.490000       15.9994           0
      3884 MEMB     30       POPC     C31      CL       0.900000       12.0110           0
      3885 MEMB     30       POPC     O32      OBL     -0.630000       15.9994           0
      3886 MEMB     30       POPC     C32      CTL2    -0.220000       12.0110           0
      3887 MEMB     30       POPC     H2X      HAL2     0.900000E-01   1.00800           0
      3888 MEMB     30       POPC     H2Y      HAL2     0.900000E-01   1.00800           0
      3889 MEMB     30       POPC     C23      CTL2    -0.180000       12.0110           0
      3890 MEMB     30       POPC     H3R      HAL2     0.900000E-01   1.00800           0
      3891 MEMB     30       POPC     H3S      HAL2     0.900000E-01   1.00800           0
      3892 MEMB     30       POPC     C24      CTL2    -0.180000       12.0110           0
      3893 MEMB     30       POPC     H4R      HAL2     0.900000E-01   1.00800           0
      3894 MEMB     30       POPC     H4S      HAL2     0.900000E-01   1.00800           0
      3895 MEMB     30       POPC     C25      CTL2    -0.180000       12.0110           0
      3896 MEMB     30       POPC     H5R      HAL2     0.900000E-01   1.00800           0
      3897 MEMB     30       POPC     H5S      HAL2     0.900000E-01   1.00800           0
      3898 MEMB     30       POPC     C26      CTL2    -0.180000       12.0110           0
      3899 MEMB     30       POPC     H6R      HAL2     0.900000E-01   1.00800           0
      3900 MEMB     30       POPC     H6S      HAL2     0.900000E-01   1.00800           0
      3901 MEMB     30       POPC     C27      CTL2    -0.180000       12.0110           0
      3902 MEMB     30       POPC     H7R      HAL2     0.900000E-01   1.00800           0
      3903 MEMB     30       POPC     H7S      HAL2     0.900000E-01   1.00800           0
      3904 MEMB     30       POPC     C28      CTL2    -0.180000       12.0110           0
      3905 MEMB     30       POPC     H8R      HAL2     0.900000E-01   1.00800           0
      3906 MEMB     30       POPC     H8S      HAL2     0.900000E-01   1.00800           0
      3907 MEMB     30       POPC     C29      CEL1    -0.150000       12.0110           0
      3908 MEMB     30       POPC     H91      HEL1     0.150000       1.00800           0
      3909 MEMB     30       POPC     C210     CEL1    -0.150000       12.0110           0
      3910 MEMB     30       POPC     H101     HEL1     0.150000       1.00800           0
      3911 MEMB     30       POPC     C211     CTL2    -0.180000       12.0110           0
      3912 MEMB     30       POPC     H11R     HAL2     0.900000E-01   1.00800           0
      3913 MEMB     30       POPC     H11S     HAL2     0.900000E-01   1.00800           0
      3914 MEMB     30       POPC     C212     CTL2    -0.180000       12.0110           0
      3915 MEMB     30       POPC     H12R     HAL2     0.900000E-01   1.00800           0
      3916 MEMB     30       POPC     H12S     HAL2     0.900000E-01   1.00800           0
      3917 MEMB     30       POPC     C213     CTL2    -0.180000       12.0110           0
      3918 MEMB     30       POPC     H13R     HAL2     0.900000E-01   1.00800           0
      3919 MEMB     30       POPC     H13S     HAL2     0.900000E-01   1.00800           0
      3920 MEMB     30       POPC     C214     CTL2    -0.180000       12.0110           0
      3921 MEMB     30       POPC     H14R     HAL2     0.900000E-01   1.00800           0
      3922 MEMB     30       POPC     H14S     HAL2     0.900000E-01   1.00800           0
      3923 MEMB     30       POPC     C215     CTL2    -0.180000       12.0110           0
      3924 MEMB     30       POPC     H15R     HAL2     0.900000E-01   1.00800           0
      3925 MEMB     30       POPC     H15S     HAL2     0.900000E-01   1.00800           0
      3926 MEMB     30       POPC     C216     CTL2    -0.180000       12.0110           0
      3927 MEMB     30       POPC     H16R     HAL2     0.900000E-01   1.00800           0
      3928 MEMB     30       POPC     H16S     HAL2     0.900000E-01   1.00800           0
      3929 MEMB     30       POPC     C217     CTL2    -0.180000       12.0110           0
      3930 MEMB     30       POPC     H17R     HAL2     0.900000E-01   1.00800           0
      3931 MEMB     30       POPC     H17S     HAL2     0.900000E-01   1.00800           0
      3932 MEMB     30       POPC     C218     CTL3    -0.270000       12.0110           0
      3933 MEMB     30       POPC     H18R     HAL3     0.900000E-01   1.00800           0
      3934 MEMB     30       POPC     H18S     HAL3     0.900000E-01   1.00800           0
      3935 MEMB     30       POPC     H18T     HAL3     0.900000E-01   1.00800           0
      3936 MEMB     30       POPC     C33      CTL2    -0.180000       12.0110           0
      3937 MEMB     30       POPC     H3X      HAL2     0.900000E-01   1.00800           0
      3938 MEMB     30       POPC     H3Y      HAL2     0.900000E-01   1.00800           0
      3939 MEMB     30       POPC     C34      CTL2    -0.180000       12.0110           0
      3940 MEMB     30       POPC     H4X      HAL2     0.900000E-01   1.00800           0
      3941 MEMB     30       POPC     H4Y      HAL2     0.900000E-01   1.00800           0
      3942 MEMB     30       POPC     C35      CTL2    -0.180000       12.0110           0
      3943 MEMB     30       POPC     H5X      HAL2     0.900000E-01   1.00800           0
      3944 MEMB     30       POPC     H5Y      HAL2     0.900000E-01   1.00800           0
      3945 MEMB     30       POPC     C36      CTL2    -0.180000       12.0110           0
      3946 MEMB     30       POPC     H6X      HAL2     0.900000E-01   1.00800           0
      3947 MEMB     30       POPC     H6Y      HAL2     0.900000E-01   1.00800           0
      3948 MEMB     30       POPC     C37      CTL2    -0.180000       12.0110           0
      3949 MEMB     30       POPC     H7X      HAL2     0.900000E-01   1.00800           0
      3950 MEMB     30       POPC     H7Y      HAL2     0.900000E-01   1.00800           0
      3951 MEMB     30       POPC     C38      CTL2    -0.180000       12.0110           0
      3952 MEMB     30       POPC     H8X      HAL2     0.900000E-01   1.00800           0
      3953 MEMB     30       POPC     H8Y      HAL2     0.900000E-01   1.00800           0
      3954 MEMB     30       POPC     C39      CTL2    -0.180000       12.0110           0
      3955 MEMB     30       POPC     H9X      HAL2     0.900000E-01   1.00800           0
      3956 MEMB     30       POPC     H9Y      HAL2     0.900000E-01   1.00800           0
      3957 MEMB     30       POPC     C310     CTL2    -0.180000       12.0110           0
      3958 MEMB     30       POPC     H10X     HAL2     0.900000E-01   1.00800           0
      3959 MEMB     30       POPC     H10Y     HAL2     0.900000E-01   1.00800           0
      3960 MEMB     30       POPC     C311     CTL2    -0.180000       12.0110           0
      3961 MEMB     30       POPC     H11X     HAL2     0.900000E-01   1.00800           0
      3962 MEMB     30       POPC     H11Y     HAL2     0.900000E-01   1.00800           0
      3963 MEMB     30       POPC     C312     CTL2    -0.180000       12.0110           0
      3964 MEMB     30       POPC     H12X     HAL2     0.900000E-01   1.00800           0
      3965 MEMB     30       POPC     H12Y     HAL2     0.900000E-01   1.00800           0
      3966 MEMB     30       POPC     C313     CTL2    -0.180000       12.0110           0
      3967 MEMB     30       POPC     H13X     HAL2     0.900000E-01   1.00800           0
      3968 MEMB     30       POPC     H13Y     HAL2     0.900000E-01   1.00800           0
      3969 MEMB     30       POPC     C314     CTL2    -0.180000       12.0110           0
      3970 MEMB     30       POPC     H14X     HAL2     0.900000E-01   1.00800           0
      3971 MEMB     30       POPC     H14Y     HAL2     0.900000E-01   1.00800           0
      3972 MEMB     30       POPC     C315     CTL2    -0.180000       12.0110           0
      3973 MEMB     30       POPC     H15X     HAL2     0.900000E-01   1.00800           0
      3974 MEMB     30       POPC     H15Y     HAL2     0.900000E-01   1.00800           0
      3975 MEMB     30       POPC     C316     CTL3    -0.270000       12.0110           0
      3976 MEMB     30       POPC     H16X     HAL3     0.900000E-01   1.00800           0
      3977 MEMB     30       POPC     H16Y     HAL3     0.900000E-01   1.00800           0
      3978 MEMB     30       POPC     H16Z     HAL3     0.900000E-01   1.00800           0
      3979 MEMB     31       POPS     N        NH3L    -0.300000       14.0070           0
      3980 MEMB     31       POPS     HN1      HCL      0.330000       1.00800           0
      3981 MEMB     31       POPS     HN2      HCL      0.330000       1.00800           0
      3982 MEMB     31       POPS     HN3      HCL      0.330000       1.00800           0
      3983 MEMB     31       POPS     C12      CTL1     0.210000       12.0110           0
      3984 MEMB     31       POPS     H12A     HBL      0.100000       1.00800           0
      3985 MEMB     31       POPS     C13      CCL      0.340000       12.0110           0
      3986 MEMB     31       POPS     O13A     OCL     -0.670000       15.9994           0
      3987 MEMB     31       POPS     O13B     OCL     -0.670000       15.9994           0
      3988 MEMB     31       POPS     C11      CTL2    -0.800000E-01   12.0110           0
      3989 MEMB     31       POPS     H11A     HAL2     0.900000E-01   1.00800           0
      3990 MEMB     31       POPS     H11B     HAL2     0.900000E-01   1.00800           0
      3991 MEMB     31       POPS     P        PL        1.50000       30.9740           0
      3992 MEMB     31       POPS     O13      O2L     -0.780000       15.9994           0
      3993 MEMB     31       POPS     O14      O2L     -0.780000       15.9994           0
      3994 MEMB     31       POPS     O12      OSLP    -0.570000       15.9994           0
      3995 MEMB     31       POPS     O11      OSLP    -0.570000       15.9994           0
      3996 MEMB     31       POPS     C1       CTL2    -0.800000E-01   12.0110           0
      3997 MEMB     31       POPS     HA       HAL2     0.900000E-01   1.00800           0
      3998 MEMB     31       POPS     HB       HAL2     0.900000E-01   1.00800           0
      3999 MEMB     31       POPS     C2       CTL1     0.170000       12.0110           0
      4000 MEMB     31       POPS     HS       HAL1     0.900000E-01   1.00800           0
      4001 MEMB     31       POPS     O21      OSL     -0.490000       15.9994           0
      4002 MEMB     31       POPS     C21      CL       0.900000       12.0110           0
      4003 MEMB     31       POPS     O22      OBL     -0.630000       15.9994           0
      4004 MEMB     31       POPS     C22      CTL2    -0.220000       12.0110           0
      4005 MEMB     31       POPS     H2R      HAL2     0.900000E-01   1.00800           0
      4006 MEMB     31       POPS     H2S      HAL2     0.900000E-01   1.00800           0
      4007 MEMB     31       POPS     C3       CTL2     0.800000E-01   12.0110           0
      4008 MEMB     31       POPS     HX       HAL2     0.900000E-01   1.00800           0
      4009 MEMB     31       POPS     HY       HAL2     0.900000E-01   1.00800           0
      4010 MEMB     31       POPS     O31      OSL     -0.490000       15.9994           0
      4011 MEMB     31       POPS     C31      CL       0.900000       12.0110           0
      4012 MEMB     31       POPS     O32      OBL     -0.630000       15.9994           0
      4013 MEMB     31       POPS     C32      CTL2    -0.220000       12.0110           0
      4014 MEMB     31       POPS     H2X      HAL2     0.900000E-01   1.00800           0
      4015 MEMB     31       POPS     H2Y      HAL2     0.900000E-01   1.00800           0
      4016 MEMB     31       POPS     C23      CTL2    -0.180000       12.0110           0
      4017 MEMB     31       POPS     H3R      HAL2     0.900000E-01   1.00800           0
      4018 MEMB     31       POPS     H3S      HAL2     0.900000E-01   1.00800           0
      4019 MEMB     31       POPS     C24      CTL2    -0.180000       12.0110           0
      4020 MEMB     31       POPS     H4R      HAL2     0.900000E-01   1.00800           0
      4021 MEMB     31       POPS     H4S      HAL2     0.900000E-01   1.00800           0
      4022 MEMB     31       POPS     C25      CTL2    -0.180000       12.0110           0
      4023 MEMB     31       POPS     H5R      HAL2     0.900000E-01   1.00800           0
      4024 MEMB     31       POPS     H5S      HAL2     0.900000E-01   1.00800           0
      4025 MEMB     31       POPS     C26      CTL2    -0.180000       12.0110           0
      4026 MEMB     31       POPS     H6R      HAL2     0.900000E-01   1.00800           0
      4027 MEMB     31       POPS     H6S      HAL2     0.900000E-01   1.00800           0
      4028 MEMB     31       POPS     C27      CTL2    -0.180000       12.0110           0
      4029 MEMB     31       POPS     H7R      HAL2     0.900000E-01   1.00800           0
      4030 MEMB     31       POPS     H7S      HAL2     0.900000E-01   1.00800           0
      4031 MEMB     31       POPS     C28      CTL2    -0.180000       12.0110           0
      4032 MEMB     31       POPS     H8R      HAL2     0.900000E-01   1.00800           0
      4033 MEMB     31       POPS     H8S      HAL2     0.900000E-01   1.00800           0
      4034 MEMB     31       POPS     C29      CEL1    -0.150000       12.0110           0
      4035 MEMB     31       POPS     H91      HEL1     0.150000       1.00800           0
      4036 MEMB     31       POPS     C210     CEL1    -0.150000       12.0110           0
      4037 MEMB     31       POPS     H101     HEL1     0.150000       1.00800           0
      4038 MEMB     31       POPS     C211     CTL2    -0.180000       12.0110           0
      4039 MEMB     31       POPS     H11R     HAL2     0.900000E-01   1.00800           0
      4040 MEMB     31       POPS     H11S     HAL2     0.900000E-01   1.00800           0
      4041 MEMB     31       POPS     C212     CTL2    -0.180000       12.0110           0
      4042 MEMB     31       POPS     H12R     HAL2     0.900000E-01   1.00800           0
      4043 MEMB     31       POPS     H12S     HAL2     0.900000E-01   1.00800           0
      4044 MEMB     31       POPS     C213     CTL2    -0.180000       12.0110           0
      4045 MEMB     31       POPS     H13R     HAL2     0.900000E-01   1.00800           0
      4046 MEMB     31       POPS     H13S     HAL2     0.900000E-01   1.00800           0
      4047 MEMB     31       POPS     C214     CTL2    -0.180000       12.0110           0
      4048 MEMB     31       POPS     H14R     HAL2     0.900000E-01   1.00800           0
      4049 MEMB     31       POPS     H14S     HAL2     0.900000E-01   1.00800           0
      4050 MEMB     31       POPS     C215     CTL2    -0.180000       12.0110           0
      4051 MEMB     31       POPS     H15R     HAL2     0.900000E-01   1.00800           0
      4052 MEMB     31       POPS     H15S     HAL2     0.900000E-01   1.00800           0
      4053 MEMB     31       POPS     C216     CTL2    -0.180000       12.0110           0
      4054 MEMB     31       POPS     H16R     HAL2     0.900000E-01   1.00800           0
      4055 MEMB     31       POPS     H16S     HAL2     0.900000E-01   1.00800           0
      4056 MEMB     31       POPS     C217     CTL2    -0.180000       12.0110           0
      4057 MEMB     31       POPS     H17R     HAL2     0.900000E-01   1.00800           0
      4058 MEMB     31       POPS     H17S     HAL2     0.900000E-01   1.00800           0
      4059 MEMB     31       POPS     C218     CTL3    -0.270000       12.0110           0
      4060 MEMB     31       POPS     H18R     HAL3     0.900000E-01   1.00800           0
      4061 MEMB     31       POPS     H18S     HAL3     0.900000E-01   1.00800           0
      4062 MEMB     31       POPS     H18T     HAL3     0.900000E-01   1.00800           0
      4063 MEMB     31       POPS     C33      CTL2    -0.180000       12.0110           0
      4064 MEMB     31       POPS     H3X      HAL2     0.900000E-01   1.00800           0
      4065 MEMB     31       POPS     H3Y      HAL2     0.900000E-01   1.00800           0
      4066 MEMB     31       POPS     C34      CTL2    -0.180000       12.0110           0
      4067 MEMB     31       POPS     H4X      HAL2     0.900000E-01   1.00800           0
      4068 MEMB     31       POPS     H4Y      HAL2     0.900000E-01   1.00800           0
      4069 MEMB     31       POPS     C35      CTL2    -0.180000       12.0110           0
      4070 MEMB     31       POPS     H5X      HAL2     0.900000E-01   1.00800           0
      4071 MEMB     31       POPS     H5Y      HAL2     0.900000E-01   1.00800           0
      4072 MEMB     31       POPS     C36      CTL2    -0.180000       12.0110           0
      4073 MEMB     31       POPS     H6X      HAL2     0.900000E-01   1.00800           0
      4074 MEMB     31       POPS     H6Y      HAL2     0.900000E-01   1.00800           0
      4075 MEMB     31       POPS     C37      CTL2    -0.180000       12.0110           0
      4076 MEMB     31       POPS     H7X      HAL2     0.900000E-01   1.00800           0
      4077 MEMB     31       POPS     H7Y      HAL2     0.900000E-01   1.00800           0
      4078 MEMB     31       POPS     C38      CTL2    -0.180000       12.0110           0
      4079 MEMB     31       POPS     H8X      HAL2     0.900000E-01   1.00800           0
      4080 MEMB     31       POPS     H8Y      HAL2     0.900000E-01   1.00800           0
      4081 MEMB     31       POPS     C39      CTL2    -0.180000       12.0110           0
      4082 MEMB     31       POPS     H9X      HAL2     0.900000E-01   1.00800           0
      4083 MEMB     31       POPS     H9Y      HAL2     0.900000E-01   1.00800           0
      4084 MEMB     31       POPS     C310     CTL2    -0.180000       12.0110           0
      4085 MEMB     31       POPS     H10X     HAL2     0.900000E-01   1.00800           0
      4086 MEMB     31       POPS     H10Y     HAL2     0.900000E-01   1.00800           0
      4087 MEMB     31       POPS     C311     CTL2    -0.180000       12.0110           0
      4088 MEMB     31       POPS     H11X     HAL2     0.900000E-01   1.00800           0
      4089 MEMB     31       POPS     H11Y     HAL2     0.900000E-01   1.00800           0
      4090 MEMB     31       POPS     C312     CTL2    -0.180000       12.0110           0
      4091 MEMB     31       POPS     H12X     HAL2     0.900000E-01   1.00800           0
      4092 MEMB     31       POPS     H12Y     HAL2     0.900000E-01   1.00800           0
      4093 MEMB     31       POPS     C313     CTL2    -0.180000       12.0110           0
      4094 MEMB     31       POPS     H13X     HAL2     0.900000E-01   1.00800           0
      4095 MEMB     31       POPS     H13Y     HAL2     0.900000E-01   1.00800           0
      4096 MEMB     31       POPS     C314     CTL2    -0.180000       12.0110           0
      4097 MEMB     31       POPS     H14X     HAL2     0.900000E-01   1.00800           0
      4098 MEMB     31       POPS     H14Y     HAL2     0.900000E-01   1.00800           0
      4099 MEMB     31       POPS     C315     CTL2    -0.180000       12.0110           0
      4100 MEMB     31       POPS     H15X     HAL2     0.900000E-01   1.00800           0
      4101 MEMB     31       POPS     H15Y     HAL2     0.900000E-01   1.00800           0
      4102 MEMB     31       POPS     C316     CTL3    -0.270000       12.0110           0
      4103 MEMB     31       POPS     H16X     HAL3     0.900000E-01   1.00800           0
      4104 MEMB     31       POPS     H16Y     HAL3     0.900000E-01   1.00800           0
      4105 MEMB     31       POPS     H16Z     HAL3     0.900000E-01   1.00800           0
      4106 MEMB     32       POPC     N        NTL     -0.600000       14.0070           0
      4107 MEMB     32       POPC     C12      CTL2    -0.100000       12.0110           0
      4108 MEMB     32       POPC     H12A     HL       0.250000       1.00800           0
      4109 MEMB     32       POPC     H12B     HL       0.250000       1.00800           0
      4110 MEMB     32       POPC     C13      CTL5    -0.350000       12.0110           0
      4111 MEMB     32       POPC     H13A     HL       0.250000       1.00800           0
      4112 MEMB     32       POPC     H13B     HL       0.250000       1.00800           0
      4113 MEMB     32       POPC     H13C     HL       0.250000       1.00800           0
      4114 MEMB     32       POPC     C14      CTL5    -0.350000       12.0110           0
      4115 MEMB     32       POPC     H14A     HL       0.250000       1.00800           0
      4116 MEMB     32       POPC     H14B     HL       0.250000       1.00800           0
      4117 MEMB     32       POPC     H14C     HL       0.250000       1.00800           0
      4118 MEMB     32       POPC     C15      CTL5    -0.350000       12.0110           0
      4119 MEMB     32       POPC     H15A     HL       0.250000       1.00800           0
      4120 MEMB     32       POPC     H15B     HL       0.250000       1.00800           0
      4121 MEMB     32       POPC     H15C     HL       0.250000       1.00800           0
      4122 MEMB     32       POPC     C11      CTL2    -0.800000E-01   12.0110           0
      4123 MEMB     32       POPC     H11A     HAL2     0.900000E-01   1.00800           0
      4124 MEMB     32       POPC     H11B     HAL2     0.900000E-01   1.00800           0
      4125 MEMB     32       POPC     P        PL        1.50000       30.9740           0
      4126 MEMB     32       POPC     O13      O2L     -0.780000       15.9994           0
      4127 MEMB     32       POPC     O14      O2L     -0.780000       15.9994           0
      4128 MEMB     32       POPC     O12      OSLP    -0.570000       15.9994           0
      4129 MEMB     32       POPC     O11      OSLP    -0.570000       15.9994           0
      4130 MEMB     32       POPC     C1       CTL2    -0.800000E-01   12.0110           0
      4131 MEMB     32       POPC     HA       HAL2     0.900000E-01   1.00800           0
      4132 MEMB     32       POPC     HB       HAL2     0.900000E-01   1.00800           0
      4133 MEMB     32       POPC     C2       CTL1     0.170000       12.0110           0
      4134 MEMB     32       POPC     HS       HAL1     0.900000E-01   1.00800           0
      4135 MEMB     32       POPC     O21      OSL     -0.490000       15.9994           0
      4136 MEMB     32       POPC     C21      CL       0.900000       12.0110           0
      4137 MEMB     32       POPC     O22      OBL     -0.630000       15.9994           0
      4138 MEMB     32       POPC     C22      CTL2    -0.220000       12.0110           0
      4139 MEMB     32       POPC     H2R      HAL2     0.900000E-01   1.00800           0
      4140 MEMB     32       POPC     H2S      HAL2     0.900000E-01   1.00800           0
      4141 MEMB     32       POPC     C3       CTL2     0.800000E-01   12.0110           0
      4142 MEMB     32       POPC     HX       HAL2     0.900000E-01   1.00800           0
      4143 MEMB     32       POPC     HY       HAL2     0.900000E-01   1.00800           0
      4144 MEMB     32       POPC     O31      OSL     -0.490000       15.9994           0
      4145 MEMB     32       POPC     C31      CL       0.900000       12.0110           0
      4146 MEMB     32       POPC     O32      OBL     -0.630000       15.9994           0
      4147 MEMB     32       POPC     C32      CTL2    -0.220000       12.0110           0
      4148 MEMB     32       POPC     H2X      HAL2     0.900000E-01   1.00800           0
      4149 MEMB     32       POPC     H2Y      HAL2     0.900000E-01   1.00800           0
      4150 MEMB     32       POPC     C23      CTL2    -0.180000       12.0110           0
      4151 MEMB     32       POPC     H3R      HAL2     0.900000E-01   1.00800           0
      4152 MEMB     32       POPC     H3S      HAL2     0.900000E-01   1.00800           0
      4153 MEMB     32       POPC     C24      CTL2    -0.180000       12.0110           0
      4154 MEMB     32       POPC     H4R      HAL2     0.900000E-01   1.00800           0
      4155 MEMB     32       POPC     H4S      HAL2     0.900000E-01   1.00800           0
      4156 MEMB     32       POPC     C25      CTL2    -0.180000       12.0110           0
      4157 MEMB     32       POPC     H5R      HAL2     0.900000E-01   1.00800           0
      4158 MEMB     32       POPC     H5S      HAL2     0.900000E-01   1.00800           0
      4159 MEMB     32       POPC     C26      CTL2    -0.180000       12.0110           0
      4160 MEMB     32       POPC     H6R      HAL2     0.900000E-01   1.00800           0
      4161 MEMB     32       POPC     H6S      HAL2     0.900000E-01   1.00800           0
      4162 MEMB     32       POPC     C27      CTL2    -0.180000       12.0110           0
      4163 MEMB     32       POPC     H7R      HAL2     0.900000E-01   1.00800           0
      4164 MEMB     32       POPC     H7S      HAL2     0.900000E-01   1.00800           0
      4165 MEMB     32       POPC     C28      CTL2    -0.180000       12.0110           0
      4166 MEMB     32       POPC     H8R      HAL2     0.900000E-01   1.00800           0
      4167 MEMB     32       POPC     H8S      HAL2     0.900000E-01   1.00800           0
      4168 MEMB     32       POPC     C29      CEL1    -0.150000       12.0110           0
      4169 MEMB     32       POPC     H91      HEL1     0.150000       1.00800           0
      4170 MEMB     32       POPC     C210     CEL1    -0.150000       12.0110           0
      4171 MEMB     32       POPC     H101     HEL1     0.150000       1.00800           0
      4172 MEMB     32       POPC     C211     CTL2    -0.180000       12.0110           0
      4173 MEMB     32       POPC     H11R     HAL2     0.900000E-01   1.00800           0
      4174 MEMB     32       POPC     H11S     HAL2     0.900000E-01   1.00800           0
      4175 MEMB     32       POPC     C212     CTL2    -0.180000       12.0110           0
      4176 MEMB     32       POPC     H12R     HAL2     0.900000E-01   1.00800           0
      4177 MEMB     32       POPC     H12S     HAL2     0.900000E-01   1.00800           0
      4178 MEMB     32       POPC     C213     CTL2    -0.180000       12.0110           0
      4179 MEMB     32       POPC     H13R     HAL2     0.900000E-01   1.00800           0
      4180 MEMB     32       POPC     H13S     HAL2     0.900000E-01   1.00800           0
      4181 MEMB     32       POPC     C214     CTL2    -0.180000       12.0110           0
      4182 MEMB     32       POPC     H14R     HAL2     0.900000E-01   1.00800           0
      4183 MEMB     32       POPC     H14S     HAL2     0.900000E-01   1.00800           0
      4184 MEMB     32       POPC     C215     CTL2    -0.180000       12.0110           0
      4185 MEMB     32       POPC     H15R     HAL2     0.900000E-01   1.00800           0
      4186 MEMB     32       POPC     H15S     HAL2     0.900000E-01   1.00800           0
      4187 MEMB     32       POPC     C216     CTL2    -0.180000       12.0110           0
      4188 MEMB     32       POPC     H16R     HAL2     0.900000E-01   1.00800           0
      4189 MEMB     32       POPC     H16S     HAL2     0.900000E-01   1.00800           0
      4190 MEMB     32       POPC     C217     CTL2    -0.180000       12.0110           0
      4191 MEMB     32       POPC     H17R     HAL2     0.900000E-01   1.00800           0
      4192 MEMB     32       POPC     H17S     HAL2     0.900000E-01   1.00800           0
      4193 MEMB     32       POPC     C218     CTL3    -0.270000       12.0110           0
      4194 MEMB     32       POPC     H18R     HAL3     0.900000E-01   1.00800           0
      4195 MEMB     32       POPC     H18S     HAL3     0.900000E-01   1.00800           0
      4196 MEMB     32       POPC     H18T     HAL3     0.900000E-01   1.00800           0
      4197 MEMB     32       POPC     C33      CTL2    -0.180000       12.0110           0
      4198 MEMB     32       POPC     H3X      HAL2     0.900000E-01   1.00800           0
      4199 MEMB     32       POPC     H3Y      HAL2     0.900000E-01   1.00800           0
      4200 MEMB     32       POPC     C34      CTL2    -0.180000       12.0110           0
      4201 MEMB     32       POPC     H4X      HAL2     0.900000E-01   1.00800           0
      4202 MEMB     32       POPC     H4Y      HAL2     0.900000E-01   1.00800           0
      4203 MEMB     32       POPC     C35      CTL2    -0.180000       12.0110           0
      4204 MEMB     32       POPC     H5X      HAL2     0.900000E-01   1.00800           0
      4205 MEMB     32       POPC     H5Y      HAL2     0.900000E-01   1.00800           0
      4206 MEMB     32       POPC     C36      CTL2    -0.180000       12.0110           0
      4207 MEMB     32       POPC     H6X      HAL2     0.900000E-01   1.00800           0
      4208 MEMB     32       POPC     H6Y      HAL2     0.900000E-01   1.00800           0
      4209 MEMB     32       POPC     C37      CTL2    -0.180000       12.0110           0
      4210 MEMB     32       POPC     H7X      HAL2     0.900000E-01   1.00800           0
      4211 MEMB     32       POPC     H7Y      HAL2     0.900000E-01   1.00800           0
      4212 MEMB     32       POPC     C38      CTL2    -0.180000       12.0110           0
      4213 MEMB     32       POPC     H8X      HAL2     0.900000E-01   1.00800           0
      4214 MEMB     32       POPC     H8Y      HAL2     0.900000E-01   1.00800           0
      4215 MEMB     32       POPC     C39      CTL2    -0.180000       12.0110           0
      4216 MEMB     32       POPC     H9X      HAL2     0.900000E-01   1.00800           0
      4217 MEMB     32       POPC     H9Y      HAL2     0.900000E-01   1.00800           0
      4218 MEMB     32       POPC     C310     CTL2    -0.180000       12.0110           0
      4219 MEMB     32       POPC     H10X     HAL2     0.900000E-01   1.00800           0
      4220 MEMB     32       POPC     H10Y     HAL2     0.900000E-01   1.00800           0
      4221 MEMB     32       POPC     C311     CTL2    -0.180000       12.0110           0
      4222 MEMB     32       POPC     H11X     HAL2     0.900000E-01   1.00800           0
      4223 MEMB     32       POPC     H11Y     HAL2     0.900000E-01   1.00800           0
      4224 MEMB     32       POPC     C312     CTL2    -0.180000       12.0110           0
      4225 MEMB     32       POPC     H12X     HAL2     0.900000E-01   1.00800           0
      4226 MEMB     32       POPC     H12Y     HAL2     0.900000E-01   1.00800           0
      4227 MEMB     32       POPC     C313     CTL2    -0.180000       12.0110           0
      4228 MEMB     32       POPC     H13X     HAL2     0.900000E-01   1.00800           0
      4229 MEMB     32       POPC     H13Y     HAL2     0.900000E-01   1.00800           0
      4230 MEMB     32       POPC     C314     CTL2    -0.180000       12.0110           0
      4231 MEMB     32       POPC     H14X     HAL2     0.900000E-01   1.00800           0
      4232 MEMB     32       POPC     H14Y     HAL2     0.900000E-01   1.00800           0
      4233 MEMB     32       POPC     C315     CTL2    -0.180000       12.0110           0
      4234 MEMB     32       POPC     H15X     HAL2     0.900000E-01   1.00800           0
      4235 MEMB     32       POPC     H15Y     HAL2     0.900000E-01   1.00800           0
      4236 MEMB     32       POPC     C316     CTL3    -0.270000       12.0110           0
      4237 MEMB     32       POPC     H16X     HAL3     0.900000E-01   1.00800           0
      4238 MEMB     32       POPC     H16Y     HAL3     0.900000E-01   1.00800           0
      4239 MEMB     32       POPC     H16Z     HAL3     0.900000E-01   1.00800           0
      4240 MEMB     33       POPC     N        NTL     -0.600000       14.0070           0
      4241 MEMB     33       POPC     C12      CTL2    -0.100000       12.0110           0
      4242 MEMB     33       POPC     H12A     HL       0.250000       1.00800           0
      4243 MEMB     33       POPC     H12B     HL       0.250000       1.00800           0
      4244 MEMB     33       POPC     C13      CTL5    -0.350000       12.0110           0
      4245 MEMB     33       POPC     H13A     HL       0.250000       1.00800           0
      4246 MEMB     33       POPC     H13B     HL       0.250000       1.00800           0
      4247 MEMB     33       POPC     H13C     HL       0.250000       1.00800           0
      4248 MEMB     33       POPC     C14      CTL5    -0.350000       12.0110           0
      4249 MEMB     33       POPC     H14A     HL       0.250000       1.00800           0
      4250 MEMB     33       POPC     H14B     HL       0.250000       1.00800           0
      4251 MEMB     33       POPC     H14C     HL       0.250000       1.00800           0
      4252 MEMB     33       POPC     C15      CTL5    -0.350000       12.0110           0
      4253 MEMB     33       POPC     H15A     HL       0.250000       1.00800           0
      4254 MEMB     33       POPC     H15B     HL       0.250000       1.00800           0
      4255 MEMB     33       POPC     H15C     HL       0.250000       1.00800           0
      4256 MEMB     33       POPC     C11      CTL2    -0.800000E-01   12.0110           0
      4257 MEMB     33       POPC     H11A     HAL2     0.900000E-01   1.00800           0
      4258 MEMB     33       POPC     H11B     HAL2     0.900000E-01   1.00800           0
      4259 MEMB     33       POPC     P        PL        1.50000       30.9740           0
      4260 MEMB     33       POPC     O13      O2L     -0.780000       15.9994           0
      4261 MEMB     33       POPC     O14      O2L     -0.780000       15.9994           0
      4262 MEMB     33       POPC     O12      OSLP    -0.570000       15.9994           0
      4263 MEMB     33       POPC     O11      OSLP    -0.570000       15.9994           0
      4264 MEMB     33       POPC     C1       CTL2    -0.800000E-01   12.0110           0
      4265 MEMB     33       POPC     HA       HAL2     0.900000E-01   1.00800           0
      4266 MEMB     33       POPC     HB       HAL2     0.900000E-01   1.00800           0
      4267 MEMB     33       POPC     C2       CTL1     0.170000       12.0110           0
      4268 MEMB     33       POPC     HS       HAL1     0.900000E-01   1.00800           0
      4269 MEMB     33       POPC     O21      OSL     -0.490000       15.9994           0
      4270 MEMB     33       POPC     C21      CL       0.900000       12.0110           0
      4271 MEMB     33       POPC     O22      OBL     -0.630000       15.9994           0
      4272 MEMB     33       POPC     C22      CTL2    -0.220000       12.0110           0
      4273 MEMB     33       POPC     H2R      HAL2     0.900000E-01   1.00800           0
      4274 MEMB     33       POPC     H2S      HAL2     0.900000E-01   1.00800           0
      4275 MEMB     33       POPC     C3       CTL2     0.800000E-01   12.0110           0
      4276 MEMB     33       POPC     HX       HAL2     0.900000E-01   1.00800           0
      4277 MEMB     33       POPC     HY       HAL2     0.900000E-01   1.00800           0
      4278 MEMB     33       POPC     O31      OSL     -0.490000       15.9994           0
      4279 MEMB     33       POPC     C31      CL       0.900000       12.0110           0
      4280 MEMB     33       POPC     O32      OBL     -0.630000       15.9994           0
      4281 MEMB     33       POPC     C32      CTL2    -0.220000       12.0110           0
      4282 MEMB     33       POPC     H2X      HAL2     0.900000E-01   1.00800           0
      4283 MEMB     33       POPC     H2Y      HAL2     0.900000E-01   1.00800           0
      4284 MEMB     33       POPC     C23      CTL2    -0.180000       12.0110           0
      4285 MEMB     33       POPC     H3R      HAL2     0.900000E-01   1.00800           0
      4286 MEMB     33       POPC     H3S      HAL2     0.900000E-01   1.00800           0
      4287 MEMB     33       POPC     C24      CTL2    -0.180000       12.0110           0
      4288 MEMB     33       POPC     H4R      HAL2     0.900000E-01   1.00800           0
      4289 MEMB     33       POPC     H4S      HAL2     0.900000E-01   1.00800           0
      4290 MEMB     33       POPC     C25      CTL2    -0.180000       12.0110           0
      4291 MEMB     33       POPC     H5R      HAL2     0.900000E-01   1.00800           0
      4292 MEMB     33       POPC     H5S      HAL2     0.900000E-01   1.00800           0
      4293 MEMB     33       POPC     C26      CTL2    -0.180000       12.0110           0
      4294 MEMB     33       POPC     H6R      HAL2     0.900000E-01   1.00800           0
      4295 MEMB     33       POPC     H6S      HAL2     0.900000E-01   1.00800           0
      4296 MEMB     33       POPC     C27      CTL2    -0.180000       12.0110           0
      4297 MEMB     33       POPC     H7R      HAL2     0.900000E-01   1.00800           0
      4298 MEMB     33       POPC     H7S      HAL2     0.900000E-01   1.00800           0
      4299 MEMB     33       POPC     C28      CTL2    -0.180000       12.0110           0
      4300 MEMB     33       POPC     H8R      HAL2     0.900000E-01   1.00800           0
      4301 MEMB     33       POPC     H8S      HAL2     0.900000E-01   1.00800           0
      4302 MEMB     33       POPC     C29      CEL1    -0.150000       12.0110           0
      4303 MEMB     33       POPC     H91      HEL1     0.150000       1.00800           0
      4304 MEMB     33       POPC     C210     CEL1    -0.150000       12.0110           0
      4305 MEMB     33       POPC     H101     HEL1     0.150000       1.00800           0
      4306 MEMB     33       POPC     C211     CTL2    -0.180000       12.0110           0
      4307 MEMB     33       POPC     H11R     HAL2     0.900000E-01   1.00800           0
      4308 MEMB     33       POPC     H11S     HAL2     0.900000E-01   1.00800           0
      4309 MEMB     33       POPC     C212     CTL2    -0.180000       12.0110           0
      4310 MEMB     33       POPC     H12R     HAL2     0.900000E-01   1.00800           0
      4311 MEMB     33       POPC     H12S     HAL2     0.900000E-01   1.00800           0
      4312 MEMB     33       POPC     C213     CTL2    -0.180000       12.0110           0
      4313 MEMB     33       POPC     H13R     HAL2     0.900000E-01   1.00800           0
      4314 MEMB     33       POPC     H13S     HAL2     0.900000E-01   1.00800           0
      4315 MEMB     33       POPC     C214     CTL2    -0.180000       12.0110           0
      4316 MEMB     33       POPC     H14R     HAL2     0.900000E-01   1.00800           0
      4317 MEMB     33       POPC     H14S     HAL2     0.900000E-01   1.00800           0
      4318 MEMB     33       POPC     C215     CTL2    -0.180000       12.0110           0
      4319 MEMB     33       POPC     H15R     HAL2     0.900000E-01   1.00800           0
      4320 MEMB     33       POPC     H15S     HAL2     0.900000E-01   1.00800           0
      4321 MEMB     33       POPC     C216     CTL2    -0.180000       12.0110           0
      4322 MEMB     33       POPC     H16R     HAL2     0.900000E-01   1.00800           0
      4323 MEMB     33       POPC     H16S     HAL2     0.900000E-01   1.00800           0
      4324 MEMB     33       POPC     C217     CTL2    -0.180000       12.0110           0
      4325 MEMB     33       POPC     H17R     HAL2     0.900000E-01   1.00800           0
      4326 MEMB     33       POPC     H17S     HAL2     0.900000E-01   1.00800           0
      4327 MEMB     33       POPC     C218     CTL3    -0.270000       12.0110           0
      4328 MEMB     33       POPC     H18R     HAL3     0.900000E-01   1.00800           0
      4329 MEMB     33       POPC     H18S     HAL3     0.900000E-01   1.00800           0
      4330 MEMB     33       POPC     H18T     HAL3     0.900000E-01   1.00800           0
      4331 MEMB     33       POPC     C33      CTL2    -0.180000       12.0110           0
      4332 MEMB     33       POPC     H3X      HAL2     0.900000E-01   1.00800           0
      4333 MEMB     33       POPC     H3Y      HAL2     0.900000E-01   1.00800           0
      4334 MEMB     33       POPC     C34      CTL2    -0.180000       12.0110           0
      4335 MEMB     33       POPC     H4X      HAL2     0.900000E-01   1.00800           0
      4336 MEMB     33       POPC     H4Y      HAL2     0.900000E-01   1.00800           0
      4337 MEMB     33       POPC     C35      CTL2    -0.180000       12.0110           0
      4338 MEMB     33       POPC     H5X      HAL2     0.900000E-01   1.00800           0
      4339 MEMB     33       POPC     H5Y      HAL2     0.900000E-01   1.00800           0
      4340 MEMB     33       POPC     C36      CTL2    -0.180000       12.0110           0
      4341 MEMB     33       POPC     H6X      HAL2     0.900000E-01   1.00800           0
      4342 MEMB     33       POPC     H6Y      HAL2     0.900000E-01   1.00800           0
      4343 MEMB     33       POPC     C37      CTL2    -0.180000       12.0110           0
      4344 MEMB     33       POPC     H7X      HAL2     0.900000E-01   1.00800           0
      4345 MEMB     33       POPC     H7Y      HAL2     0.900000E-01   1.00800           0
      4346 MEMB     33       POPC     C38      CTL2    -0.180000       12.0110           0
      4347 MEMB     33       POPC     H8X      HAL2     0.900000E-01   1.00800           0
      4348 MEMB     33       POPC     H8Y      HAL2     0.900000E-01   1.00800           0
      4349 MEMB     33       POPC     C39      CTL2    -0.180000       12.0110           0
      4350 MEMB     33       POPC     H9X      HAL2     0.900000E-01   1.00800           0
      4351 MEMB     33       POPC     H9Y      HAL2     0.900000E-01   1.00800           0
      4352 MEMB     33       POPC     C310     CTL2    -0.180000       12.0110           0
      4353 MEMB     33       POPC     H10X     HAL2     0.900000E-01   1.00800           0
      4354 MEMB     33       POPC     H10Y     HAL2     0.900000E-01   1.00800           0
      4355 MEMB     33       POPC     C311     CTL2    -0.180000       12.0110           0
      4356 MEMB     33       POPC     H11X     HAL2     0.900000E-01   1.00800           0
      4357 MEMB     33       POPC     H11Y     HAL2     0.900000E-01   1.00800           0
      4358 MEMB     33       POPC     C312     CTL2    -0.180000       12.0110           0
      4359 MEMB     33       POPC     H12X     HAL2     0.900000E-01   1.00800           0
      4360 MEMB     33       POPC     H12Y     HAL2     0.900000E-01   1.00800           0
      4361 MEMB     33       POPC     C313     CTL2    -0.180000       12.0110           0
      4362 MEMB     33       POPC     H13X     HAL2     0.900000E-01   1.00800           0
      4363 MEMB     33       POPC     H13Y     HAL2     0.900000E-01   1.00800           0
      4364 MEMB     33       POPC     C314     CTL2    -0.180000       12.0110           0
      4365 MEMB     33       POPC     H14X     HAL2     0.900000E-01   1.00800           0
      4366 MEMB     33       POPC     H14Y     HAL2     0.900000E-01   1.00800           0
      4367 MEMB     33       POPC     C315     CTL2    -0.180000       12.0110           0
      4368 MEMB     33       POPC     H15X     HAL2     0.900000E-01   1.00800           0
      4369 MEMB     33       POPC     H15Y     HAL2     0.900000E-01   1.00800           0
      4370 MEMB     33       POPC     C316     CTL3    -0.270000       12.0110           0
      4371 MEMB     33       POPC     H16X     HAL3     0.900000E-01   1.00800           0
      4372 MEMB     33       POPC     H16Y     HAL3     0.900000E-01   1.00800           0
      4373 MEMB     33       POPC     H16Z     HAL3     0.900000E-01   1.00800           0
      4374 MEMB     34       POPC     N        NTL     -0.600000       14.0070           0
      4375 MEMB     34       POPC     C12      CTL2    -0.100000       12.0110           0
      4376 MEMB     34       POPC     H12A     HL       0.250000       1.00800           0
      4377 MEMB     34       POPC     H12B     HL       0.250000       1.00800           0
      4378 MEMB     34       POPC     C13      CTL5    -0.350000       12.0110           0
      4379 MEMB     34       POPC     H13A     HL       0.250000       1.00800           0
      4380 MEMB     34       POPC     H13B     HL       0.250000       1.00800           0
      4381 MEMB     34       POPC     H13C     HL       0.250000       1.00800           0
      4382 MEMB     34       POPC     C14      CTL5    -0.350000       12.0110           0
      4383 MEMB     34       POPC     H14A     HL       0.250000       1.00800           0
      4384 MEMB     34       POPC     H14B     HL       0.250000       1.00800           0
      4385 MEMB     34       POPC     H14C     HL       0.250000       1.00800           0
      4386 MEMB     34       POPC     C15      CTL5    -0.350000       12.0110           0
      4387 MEMB     34       POPC     H15A     HL       0.250000       1.00800           0
      4388 MEMB     34       POPC     H15B     HL       0.250000       1.00800           0
      4389 MEMB     34       POPC     H15C     HL       0.250000       1.00800           0
      4390 MEMB     34       POPC     C11      CTL2    -0.800000E-01   12.0110           0
      4391 MEMB     34       POPC     H11A     HAL2     0.900000E-01   1.00800           0
      4392 MEMB     34       POPC     H11B     HAL2     0.900000E-01   1.00800           0
      4393 MEMB     34       POPC     P        PL        1.50000       30.9740           0
      4394 MEMB     34       POPC     O13      O2L     -0.780000       15.9994           0
      4395 MEMB     34       POPC     O14      O2L     -0.780000       15.9994           0
      4396 MEMB     34       POPC     O12      OSLP    -0.570000       15.9994           0
      4397 MEMB     34       POPC     O11      OSLP    -0.570000       15.9994           0
      4398 MEMB     34       POPC     C1       CTL2    -0.800000E-01   12.0110           0
      4399 MEMB     34       POPC     HA       HAL2     0.900000E-01   1.00800           0
      4400 MEMB     34       POPC     HB       HAL2     0.900000E-01   1.00800           0
      4401 MEMB     34       POPC     C2       CTL1     0.170000       12.0110           0
      4402 MEMB     34       POPC     HS       HAL1     0.900000E-01   1.00800           0
      4403 MEMB     34       POPC     O21      OSL     -0.490000       15.9994           0
      4404 MEMB     34       POPC     C21      CL       0.900000       12.0110           0
      4405 MEMB     34       POPC     O22      OBL     -0.630000       15.9994           0
      4406 MEMB     34       POPC     C22      CTL2    -0.220000       12.0110           0
      4407 MEMB     34       POPC     H2R      HAL2     0.900000E-01   1.00800           0
      4408 MEMB     34       POPC     H2S      HAL2     0.900000E-01   1.00800           0
      4409 MEMB     34       POPC     C3       CTL2     0.800000E-01   12.0110           0
      4410 MEMB     34       POPC     HX       HAL2     0.900000E-01   1.00800           0
      4411 MEMB     34       POPC     HY       HAL2     0.900000E-01   1.00800           0
      4412 MEMB     34       POPC     O31      OSL     -0.490000       15.9994           0
      4413 MEMB     34       POPC     C31      CL       0.900000       12.0110           0
      4414 MEMB     34       POPC     O32      OBL     -0.630000       15.9994           0
      4415 MEMB     34       POPC     C32      CTL2    -0.220000       12.0110           0
      4416 MEMB     34       POPC     H2X      HAL2     0.900000E-01   1.00800           0
      4417 MEMB     34       POPC     H2Y      HAL2     0.900000E-01   1.00800           0
      4418 MEMB     34       POPC     C23      CTL2    -0.180000       12.0110           0
      4419 MEMB     34       POPC     H3R      HAL2     0.900000E-01   1.00800           0
      4420 MEMB     34       POPC     H3S      HAL2     0.900000E-01   1.00800           0
      4421 MEMB     34       POPC     C24      CTL2    -0.180000       12.0110           0
      4422 MEMB     34       POPC     H4R      HAL2     0.900000E-01   1.00800           0
      4423 MEMB     34       POPC     H4S      HAL2     0.900000E-01   1.00800           0
      4424 MEMB     34       POPC     C25      CTL2    -0.180000       12.0110           0
      4425 MEMB     34       POPC     H5R      HAL2     0.900000E-01   1.00800           0
      4426 MEMB     34       POPC     H5S      HAL2     0.900000E-01   1.00800           0
      4427 MEMB     34       POPC     C26      CTL2    -0.180000       12.0110           0
      4428 MEMB     34       POPC     H6R      HAL2     0.900000E-01   1.00800           0
      4429 MEMB     34       POPC     H6S      HAL2     0.900000E-01   1.00800           0
      4430 MEMB     34       POPC     C27      CTL2    -0.180000       12.0110           0
      4431 MEMB     34       POPC     H7R      HAL2     0.900000E-01   1.00800           0
      4432 MEMB     34       POPC     H7S      HAL2     0.900000E-01   1.00800           0
      4433 MEMB     34       POPC     C28      CTL2    -0.180000       12.0110           0
      4434 MEMB     34       POPC     H8R      HAL2     0.900000E-01   1.00800           0
      4435 MEMB     34       POPC     H8S      HAL2     0.900000E-01   1.00800           0
      4436 MEMB     34       POPC     C29      CEL1    -0.150000       12.0110           0
      4437 MEMB     34       POPC     H91      HEL1     0.150000       1.00800           0
      4438 MEMB     34       POPC     C210     CEL1    -0.150000       12.0110           0
      4439 MEMB     34       POPC     H101     HEL1     0.150000       1.00800           0
      4440 MEMB     34       POPC     C211     CTL2    -0.180000       12.0110           0
      4441 MEMB     34       POPC     H11R     HAL2     0.900000E-01   1.00800           0
      4442 MEMB     34       POPC     H11S     HAL2     0.900000E-01   1.00800           0
      4443 MEMB     34       POPC     C212     CTL2    -0.180000       12.0110           0
      4444 MEMB     34       POPC     H12R     HAL2     0.900000E-01   1.00800           0
      4445 MEMB     34       POPC     H12S     HAL2     0.900000E-01   1.00800           0
      4446 MEMB     34       POPC     C213     CTL2    -0.180000       12.0110           0
      4447 MEMB     34       POPC     H13R     HAL2     0.900000E-01   1.00800           0
      4448 MEMB     34       POPC     H13S     HAL2     0.900000E-01   1.00800           0
      4449 MEMB     34       POPC     C214     CTL2    -0.180000       12.0110           0
      4450 MEMB     34       POPC     H14R     HAL2     0.900000E-01   1.00800           0
      4451 MEMB     34       POPC     H14S     HAL2     0.900000E-01   1.00800           0
      4452 MEMB     34       POPC     C215     CTL2    -0.180000       12.0110           0
      4453 MEMB     34       POPC     H15R     HAL2     0.900000E-01   1.00800           0
      4454 MEMB     34       POPC     H15S     HAL2     0.900000E-01   1.00800           0
      4455 MEMB     34       POPC     C216     CTL2    -0.180000       12.0110           0
      4456 MEMB     34       POPC     H16R     HAL2     0.900000E-01   1.00800           0
      4457 MEMB     34       POPC     H16S     HAL2     0.900000E-01   1.00800           0
      4458 MEMB     34       POPC     C217     CTL2    -0.180000       12.0110           0
      4459 MEMB     34       POPC     H17R     HAL2     0.900000E-01   1.00800           0
      4460 MEMB     34       POPC     H17S     HAL2     0.900000E-01   1.00800           0
      4461 MEMB     34       POPC     C218     CTL3    -0.270000       12.0110           0
      4462 MEMB     34       POPC     H18R     HAL3     0.900000E-01   1.00800           0
      4463 MEMB     34       POPC     H18S     HAL3     0.900000E-01   1.00800           0
      4464 MEMB     34       POPC     H18T     HAL3     0.900000E-01   1.00800           0
      4465 MEMB     34       POPC     C33      CTL2    -0.180000       12.0110           0
      4466 MEMB     34       POPC     H3X      HAL2     0.900000E-01   1.00800           0
      4467 MEMB     34       POPC     H3Y      HAL2     0.900000E-01   1.00800           0
      4468 MEMB     34       POPC     C34      CTL2    -0.180000       12.0110           0
      4469 MEMB     34       POPC     H4X      HAL2     0.900000E-01   1.00800           0
      4470 MEMB     34       POPC     H4Y      HAL2     0.900000E-01   1.00800           0
      4471 MEMB     34       POPC     C35      CTL2    -0.180000       12.0110           0
      4472 MEMB     34       POPC     H5X      HAL2     0.900000E-01   1.00800           0
      4473 MEMB     34       POPC     H5Y      HAL2     0.900000E-01   1.00800           0
      4474 MEMB     34       POPC     C36      CTL2    -0.180000       12.0110           0
      4475 MEMB     34       POPC     H6X      HAL2     0.900000E-01   1.00800           0
      4476 MEMB     34       POPC     H6Y      HAL2     0.900000E-01   1.00800           0
      4477 MEMB     34       POPC     C37      CTL2    -0.180000       12.0110           0
      4478 MEMB     34       POPC     H7X      HAL2     0.900000E-01   1.00800           0
      4479 MEMB     34       POPC     H7Y      HAL2     0.900000E-01   1.00800           0
      4480 MEMB     34       POPC     C38      CTL2    -0.180000       12.0110           0
      4481 MEMB     34       POPC     H8X      HAL2     0.900000E-01   1.00800           0
      4482 MEMB     34       POPC     H8Y      HAL2     0.900000E-01   1.00800           0
      4483 MEMB     34       POPC     C39      CTL2    -0.180000       12.0110           0
      4484 MEMB     34       POPC     H9X      HAL2     0.900000E-01   1.00800           0
      4485 MEMB     34       POPC     H9Y      HAL2     0.900000E-01   1.00800           0
      4486 MEMB     34       POPC     C310     CTL2    -0.180000       12.0110           0
      4487 MEMB     34       POPC     H10X     HAL2     0.900000E-01   1.00800           0
      4488 MEMB     34       POPC     H10Y     HAL2     0.900000E-01   1.00800           0
      4489 MEMB     34       POPC     C311     CTL2    -0.180000       12.0110           0
      4490 MEMB     34       POPC     H11X     HAL2     0.900000E-01   1.00800           0
      4491 MEMB     34       POPC     H11Y     HAL2     0.900000E-01   1.00800           0
      4492 MEMB     34       POPC     C312     CTL2    -0.180000       12.0110           0
      4493 MEMB     34       POPC     H12X     HAL2     0.900000E-01   1.00800           0
      4494 MEMB     34       POPC     H12Y     HAL2     0.900000E-01   1.00800           0
      4495 MEMB     34       POPC     C313     CTL2    -0.180000       12.0110           0
      4496 MEMB     34       POPC     H13X     HAL2     0.900000E-01   1.00800           0
      4497 MEMB     34       POPC     H13Y     HAL2     0.900000E-01   1.00800           0
      4498 MEMB     34       POPC     C314     CTL2    -0.180000       12.0110           0
      4499 MEMB     34       POPC     H14X     HAL2     0.900000E-01   1.00800           0
      4500 MEMB     34       POPC     H14Y     HAL2     0.900000E-01   1.00800           0
      4501 MEMB     34       POPC     C315     CTL2    -0.180000       12.0110           0
      4502 MEMB     34       POPC     H15X     HAL2     0.900000E-01   1.00800           0
      4503 MEMB     34       POPC     H15Y     HAL2     0.900000E-01   1.00800           0
      4504 MEMB     34       POPC     C316     CTL3    -0.270000       12.0110           0
      4505 MEMB     34       POPC     H16X     HAL3     0.900000E-01   1.00800           0
      4506 MEMB     34       POPC     H16Y     HAL3     0.900000E-01   1.00800           0
      4507 MEMB     34       POPC     H16Z     HAL3     0.900000E-01   1.00800           0
      4508 MEMB     35       POPS     N        NH3L    -0.300000       14.0070           0
      4509 MEMB     35       POPS     HN1      HCL      0.330000       1.00800           0
      4510 MEMB     35       POPS     HN2      HCL      0.330000       1.00800           0
      4511 MEMB     35       POPS     HN3      HCL      0.330000       1.00800           0
      4512 MEMB     35       POPS     C12      CTL1     0.210000       12.0110           0
      4513 MEMB     35       POPS     H12A     HBL      0.100000       1.00800           0
      4514 MEMB     35       POPS     C13      CCL      0.340000       12.0110           0
      4515 MEMB     35       POPS     O13A     OCL     -0.670000       15.9994           0
      4516 MEMB     35       POPS     O13B     OCL     -0.670000       15.9994           0
      4517 MEMB     35       POPS     C11      CTL2    -0.800000E-01   12.0110           0
      4518 MEMB     35       POPS     H11A     HAL2     0.900000E-01   1.00800           0
      4519 MEMB     35       POPS     H11B     HAL2     0.900000E-01   1.00800           0
      4520 MEMB     35       POPS     P        PL        1.50000       30.9740           0
      4521 MEMB     35       POPS     O13      O2L     -0.780000       15.9994           0
      4522 MEMB     35       POPS     O14      O2L     -0.780000       15.9994           0
      4523 MEMB     35       POPS     O12      OSLP    -0.570000       15.9994           0
      4524 MEMB     35       POPS     O11      OSLP    -0.570000       15.9994           0
      4525 MEMB     35       POPS     C1       CTL2    -0.800000E-01   12.0110           0
      4526 MEMB     35       POPS     HA       HAL2     0.900000E-01   1.00800           0
      4527 MEMB     35       POPS     HB       HAL2     0.900000E-01   1.00800           0
      4528 MEMB     35       POPS     C2       CTL1     0.170000       12.0110           0
      4529 MEMB     35       POPS     HS       HAL1     0.900000E-01   1.00800           0
      4530 MEMB     35       POPS     O21      OSL     -0.490000       15.9994           0
      4531 MEMB     35       POPS     C21      CL       0.900000       12.0110           0
      4532 MEMB     35       POPS     O22      OBL     -0.630000       15.9994           0
      4533 MEMB     35       POPS     C22      CTL2    -0.220000       12.0110           0
      4534 MEMB     35       POPS     H2R      HAL2     0.900000E-01   1.00800           0
      4535 MEMB     35       POPS     H2S      HAL2     0.900000E-01   1.00800           0
      4536 MEMB     35       POPS     C3       CTL2     0.800000E-01   12.0110           0
      4537 MEMB     35       POPS     HX       HAL2     0.900000E-01   1.00800           0
      4538 MEMB     35       POPS     HY       HAL2     0.900000E-01   1.00800           0
      4539 MEMB     35       POPS     O31      OSL     -0.490000       15.9994           0
      4540 MEMB     35       POPS     C31      CL       0.900000       12.0110           0
      4541 MEMB     35       POPS     O32      OBL     -0.630000       15.9994           0
      4542 MEMB     35       POPS     C32      CTL2    -0.220000       12.0110           0
      4543 MEMB     35       POPS     H2X      HAL2     0.900000E-01   1.00800           0
      4544 MEMB     35       POPS     H2Y      HAL2     0.900000E-01   1.00800           0
      4545 MEMB     35       POPS     C23      CTL2    -0.180000       12.0110           0
      4546 MEMB     35       POPS     H3R      HAL2     0.900000E-01   1.00800           0
      4547 MEMB     35       POPS     H3S      HAL2     0.900000E-01   1.00800           0
      4548 MEMB     35       POPS     C24      CTL2    -0.180000       12.0110           0
      4549 MEMB     35       POPS     H4R      HAL2     0.900000E-01   1.00800           0
      4550 MEMB     35       POPS     H4S      HAL2     0.900000E-01   1.00800           0
      4551 MEMB     35       POPS     C25      CTL2    -0.180000       12.0110           0
      4552 MEMB     35       POPS     H5R      HAL2     0.900000E-01   1.00800           0
      4553 MEMB     35       POPS     H5S      HAL2     0.900000E-01   1.00800           0
      4554 MEMB     35       POPS     C26      CTL2    -0.180000       12.0110           0
      4555 MEMB     35       POPS     H6R      HAL2     0.900000E-01   1.00800           0
      4556 MEMB     35       POPS     H6S      HAL2     0.900000E-01   1.00800           0
      4557 MEMB     35       POPS     C27      CTL2    -0.180000       12.0110           0
      4558 MEMB     35       POPS     H7R      HAL2     0.900000E-01   1.00800           0
      4559 MEMB     35       POPS     H7S      HAL2     0.900000E-01   1.00800           0
      4560 MEMB     35       POPS     C28      CTL2    -0.180000       12.0110           0
      4561 MEMB     35       POPS     H8R      HAL2     0.900000E-01   1.00800           0
      4562 MEMB     35       POPS     H8S      HAL2     0.900000E-01   1.00800           0
      4563 MEMB     35       POPS     C29      CEL1    -0.150000       12.0110           0
      4564 MEMB     35       POPS     H91      HEL1     0.150000       1.00800           0
      4565 MEMB     35       POPS     C210     CEL1    -0.150000       12.0110           0
      4566 MEMB     35       POPS     H101     HEL1     0.150000       1.00800           0
      4567 MEMB     35       POPS     C211     CTL2    -0.180000       12.0110           0
      4568 MEMB     35       POPS     H11R     HAL2     0.900000E-01   1.00800           0
      4569 MEMB     35       POPS     H11S     HAL2     0.900000E-01   1.00800           0
      4570 MEMB     35       POPS     C212     CTL2    -0.180000       12.0110           0
      4571 MEMB     35       POPS     H12R     HAL2     0.900000E-01   1.00800           0
      4572 MEMB     35       POPS     H12S     HAL2     0.900000E-01   1.00800           0
      4573 MEMB     35       POPS     C213     CTL2    -0.180000       12.0110           0
      4574 MEMB     35       POPS     H13R     HAL2     0.900000E-01   1.00800           0
      4575 MEMB     35       POPS     H13S     HAL2     0.900000E-01   1.00800           0
      4576 MEMB     35       POPS     C214     CTL2    -0.180000       12.0110           0
      4577 MEMB     35       POPS     H14R     HAL2     0.900000E-01   1.00800           0
      4578 MEMB     35       POPS     H14S     HAL2     0.900000E-01   1.00800           0
      4579 MEMB     35       POPS     C215     CTL2    -0.180000       12.0110           0
      4580 MEMB     35       POPS     H15R     HAL2     0.900000E-01   1.00800           0
      4581 MEMB     35       POPS     H15S     HAL2     0.900000E-01   1.00800           0
      4582 MEMB     35       POPS     C216     CTL2    -0.180000       12.0110           0
      4583 MEMB     35       POPS     H16R     HAL2     0.900000E-01   1.00800           0
      4584 MEMB     35       POPS     H16S     HAL2     0.900000E-01   1.00800           0
      4585 MEMB     35       POPS     C217     CTL2    -0.180000       12.0110           0
      4586 MEMB     35       POPS     H17R     HAL2     0.900000E-01   1.00800           0
      4587 MEMB     35       POPS     H17S     HAL2     0.900000E-01   1.00800           0
      4588 MEMB     35       POPS     C218     CTL3    -0.270000       12.0110           0
      4589 MEMB     35       POPS     H18R     HAL3     0.900000E-01   1.00800           0
      4590 MEMB     35       POPS     H18S     HAL3     0.900000E-01   1.00800           0
      4591 MEMB     35       POPS     H18T     HAL3     0.900000E-01   1.00800           0
      4592 MEMB     35       POPS     C33      CTL2    -0.180000       12.0110           0
      4593 MEMB     35       POPS     H3X      HAL2     0.900000E-01   1.00800           0
      4594 MEMB     35       POPS     H3Y      HAL2     0.900000E-01   1.00800           0
      4595 MEMB     35       POPS     C34      CTL2    -0.180000       12.0110           0
      4596 MEMB     35       POPS     H4X      HAL2     0.900000E-01   1.00800           0
      4597 MEMB     35       POPS     H4Y      HAL2     0.900000E-01   1.00800           0
      4598 MEMB     35       POPS     C35      CTL2    -0.180000       12.0110           0
      4599 MEMB     35       POPS     H5X      HAL2     0.900000E-01   1.00800           0
      4600 MEMB     35       POPS     H5Y      HAL2     0.900000E-01   1.00800           0
      4601 MEMB     35       POPS     C36      CTL2    -0.180000       12.0110           0
      4602 MEMB     35       POPS     H6X      HAL2     0.900000E-01   1.00800           0
      4603 MEMB     35       POPS     H6Y      HAL2     0.900000E-01   1.00800           0
      4604 MEMB     35       POPS     C37      CTL2    -0.180000       12.0110           0
      4605 MEMB     35       POPS     H7X      HAL2     0.900000E-01   1.00800           0
      4606 MEMB     35       POPS     H7Y      HAL2     0.900000E-01   1.00800           0
      4607 MEMB     35       POPS     C38      CTL2    -0.180000       12.0110           0
      4608 MEMB     35       POPS     H8X      HAL2     0.900000E-01   1.00800           0
      4609 MEMB     35       POPS     H8Y      HAL2     0.900000E-01   1.00800           0
      4610 MEMB     35       POPS     C39      CTL2    -0.180000       12.0110           0
      4611 MEMB     35       POPS     H9X      HAL2     0.900000E-01   1.00800           0
      4612 MEMB     35       POPS     H9Y      HAL2     0.900000E-01   1.00800           0
      4613 MEMB     35       POPS     C310     CTL2    -0.180000       12.0110           0
      4614 MEMB     35       POPS     H10X     HAL2     0.900000E-01   1.00800           0
      4615 MEMB     35       POPS     H10Y     HAL2     0.900000E-01   1.00800           0
      4616 MEMB     35       POPS     C311     CTL2    -0.180000       12.0110           0
      4617 MEMB     35       POPS     H11X     HAL2     0.900000E-01   1.00800           0
      4618 MEMB     35       POPS     H11Y     HAL2     0.900000E-01   1.00800           0
      4619 MEMB     35       POPS     C312     CTL2    -0.180000       12.0110           0
      4620 MEMB     35       POPS     H12X     HAL2     0.900000E-01   1.00800           0
      4621 MEMB     35       POPS     H12Y     HAL2     0.900000E-01   1.00800           0
      4622 MEMB     35       POPS     C313     CTL2    -0.180000       12.0110           0
      4623 MEMB     35       POPS     H13X     HAL2     0.900000E-01   1.00800           0
      4624 MEMB     35       POPS     H13Y     HAL2     0.900000E-01   1.00800           0
      4625 MEMB     35       POPS     C314     CTL2    -0.180000       12.0110           0
      4626 MEMB     35       POPS     H14X     HAL2     0.900000E-01   1.00800           0
      4627 MEMB     35       POPS     H14Y     HAL2     0.900000E-01   1.00800           0
      4628 MEMB     35       POPS     C315     CTL2    -0.180000       12.0110           0
      4629 MEMB     35       POPS     H15X     HAL2     0.900000E-01   1.00800           0
      4630 MEMB     35       POPS     H15Y     HAL2     0.900000E-01   1.00800           0
      4631 MEMB     35       POPS     C316     CTL3    -0.270000       12.0110           0
      4632 MEMB     35       POPS     H16X     HAL3     0.900000E-01   1.00800           0
      4633 MEMB     35       POPS     H16Y     HAL3     0.900000E-01   1.00800           0
      4634 MEMB     35       POPS     H16Z     HAL3     0.900000E-01   1.00800           0
      4635 MEMB     36       POPC     N        NTL     -0.600000       14.0070           0
      4636 MEMB     36       POPC     C12      CTL2    -0.100000       12.0110           0
      4637 MEMB     36       POPC     H12A     HL       0.250000       1.00800           0
      4638 MEMB     36       POPC     H12B     HL       0.250000       1.00800           0
      4639 MEMB     36       POPC     C13      CTL5    -0.350000       12.0110           0
      4640 MEMB     36       POPC     H13A     HL       0.250000       1.00800           0
      4641 MEMB     36       POPC     H13B     HL       0.250000       1.00800           0
      4642 MEMB     36       POPC     H13C     HL       0.250000       1.00800           0
      4643 MEMB     36       POPC     C14      CTL5    -0.350000       12.0110           0
      4644 MEMB     36       POPC     H14A     HL       0.250000       1.00800           0
      4645 MEMB     36       POPC     H14B     HL       0.250000       1.00800           0
      4646 MEMB     36       POPC     H14C     HL       0.250000       1.00800           0
      4647 MEMB     36       POPC     C15      CTL5    -0.350000       12.0110           0
      4648 MEMB     36       POPC     H15A     HL       0.250000       1.00800           0
      4649 MEMB     36       POPC     H15B     HL       0.250000       1.00800           0
      4650 MEMB     36       POPC     H15C     HL       0.250000       1.00800           0
      4651 MEMB     36       POPC     C11      CTL2    -0.800000E-01   12.0110           0
      4652 MEMB     36       POPC     H11A     HAL2     0.900000E-01   1.00800           0
      4653 MEMB     36       POPC     H11B     HAL2     0.900000E-01   1.00800           0
      4654 MEMB     36       POPC     P        PL        1.50000       30.9740           0
      4655 MEMB     36       POPC     O13      O2L     -0.780000       15.9994           0
      4656 MEMB     36       POPC     O14      O2L     -0.780000       15.9994           0
      4657 MEMB     36       POPC     O12      OSLP    -0.570000       15.9994           0
      4658 MEMB     36       POPC     O11      OSLP    -0.570000       15.9994           0
      4659 MEMB     36       POPC     C1       CTL2    -0.800000E-01   12.0110           0
      4660 MEMB     36       POPC     HA       HAL2     0.900000E-01   1.00800           0
      4661 MEMB     36       POPC     HB       HAL2     0.900000E-01   1.00800           0
      4662 MEMB     36       POPC     C2       CTL1     0.170000       12.0110           0
      4663 MEMB     36       POPC     HS       HAL1     0.900000E-01   1.00800           0
      4664 MEMB     36       POPC     O21      OSL     -0.490000       15.9994           0
      4665 MEMB     36       POPC     C21      CL       0.900000       12.0110           0
      4666 MEMB     36       POPC     O22      OBL     -0.630000       15.9994           0
      4667 MEMB     36       POPC     C22      CTL2    -0.220000       12.0110           0
      4668 MEMB     36       POPC     H2R      HAL2     0.900000E-01   1.00800           0
      4669 MEMB     36       POPC     H2S      HAL2     0.900000E-01   1.00800           0
      4670 MEMB     36       POPC     C3       CTL2     0.800000E-01   12.0110           0
      4671 MEMB     36       POPC     HX       HAL2     0.900000E-01   1.00800           0
      4672 MEMB     36       POPC     HY       HAL2     0.900000E-01   1.00800           0
      4673 MEMB     36       POPC     O31      OSL     -0.490000       15.9994           0
      4674 MEMB     36       POPC     C31      CL       0.900000       12.0110           0
      4675 MEMB     36       POPC     O32      OBL     -0.630000       15.9994           0
      4676 MEMB     36       POPC     C32      CTL2    -0.220000       12.0110           0
      4677 MEMB     36       POPC     H2X      HAL2     0.900000E-01   1.00800           0
      4678 MEMB     36       POPC     H2Y      HAL2     0.900000E-01   1.00800           0
      4679 MEMB     36       POPC     C23      CTL2    -0.180000       12.0110           0
      4680 MEMB     36       POPC     H3R      HAL2     0.900000E-01   1.00800           0
      4681 MEMB     36       POPC     H3S      HAL2     0.900000E-01   1.00800           0
      4682 MEMB     36       POPC     C24      CTL2    -0.180000       12.0110           0
      4683 MEMB     36       POPC     H4R      HAL2     0.900000E-01   1.00800           0
      4684 MEMB     36       POPC     H4S      HAL2     0.900000E-01   1.00800           0
      4685 MEMB     36       POPC     C25      CTL2    -0.180000       12.0110           0
      4686 MEMB     36       POPC     H5R      HAL2     0.900000E-01   1.00800           0
      4687 MEMB     36       POPC     H5S      HAL2     0.900000E-01   1.00800           0
      4688 MEMB     36       POPC     C26      CTL2    -0.180000       12.0110           0
      4689 MEMB     36       POPC     H6R      HAL2     0.900000E-01   1.00800           0
      4690 MEMB     36       POPC     H6S      HAL2     0.900000E-01   1.00800           0
      4691 MEMB     36       POPC     C27      CTL2    -0.180000       12.0110           0
      4692 MEMB     36       POPC     H7R      HAL2     0.900000E-01   1.00800           0
      4693 MEMB     36       POPC     H7S      HAL2     0.900000E-01   1.00800           0
      4694 MEMB     36       POPC     C28      CTL2    -0.180000       12.0110           0
      4695 MEMB     36       POPC     H8R      HAL2     0.900000E-01   1.00800           0
      4696 MEMB     36       POPC     H8S      HAL2     0.900000E-01   1.00800           0
      4697 MEMB     36       POPC     C29      CEL1    -0.150000       12.0110           0
      4698 MEMB     36       POPC     H91      HEL1     0.150000       1.00800           0
      4699 MEMB     36       POPC     C210     CEL1    -0.150000       12.0110           0
      4700 MEMB     36       POPC     H101     HEL1     0.150000       1.00800           0
      4701 MEMB     36       POPC     C211     CTL2    -0.180000       12.0110           0
      4702 MEMB     36       POPC     H11R     HAL2     0.900000E-01   1.00800           0
      4703 MEMB     36       POPC     H11S     HAL2     0.900000E-01   1.00800           0
      4704 MEMB     36       POPC     C212     CTL2    -0.180000       12.0110           0
      4705 MEMB     36       POPC     H12R     HAL2     0.900000E-01   1.00800           0
      4706 MEMB     36       POPC     H12S     HAL2     0.900000E-01   1.00800           0
      4707 MEMB     36       POPC     C213     CTL2    -0.180000       12.0110           0
      4708 MEMB     36       POPC     H13R     HAL2     0.900000E-01   1.00800           0
      4709 MEMB     36       POPC     H13S     HAL2     0.900000E-01   1.00800           0
      4710 MEMB     36       POPC     C214     CTL2    -0.180000       12.0110           0
      4711 MEMB     36       POPC     H14R     HAL2     0.900000E-01   1.00800           0
      4712 MEMB     36       POPC     H14S     HAL2     0.900000E-01   1.00800           0
      4713 MEMB     36       POPC     C215     CTL2    -0.180000       12.0110           0
      4714 MEMB     36       POPC     H15R     HAL2     0.900000E-01   1.00800           0
      4715 MEMB     36       POPC     H15S     HAL2     0.900000E-01   1.00800           0
      4716 MEMB     36       POPC     C216     CTL2    -0.180000       12.0110           0
      4717 MEMB     36       POPC     H16R     HAL2     0.900000E-01   1.00800           0
      4718 MEMB     36       POPC     H16S     HAL2     0.900000E-01   1.00800           0
      4719 MEMB     36       POPC     C217     CTL2    -0.180000       12.0110           0
      4720 MEMB     36       POPC     H17R     HAL2     0.900000E-01   1.00800           0
      4721 MEMB     36       POPC     H17S     HAL2     0.900000E-01   1.00800           0
      4722 MEMB     36       POPC     C218     CTL3    -0.270000       12.0110           0
      4723 MEMB     36       POPC     H18R     HAL3     0.900000E-01   1.00800           0
      4724 MEMB     36       POPC     H18S     HAL3     0.900000E-01   1.00800           0
      4725 MEMB     36       POPC     H18T     HAL3     0.900000E-01   1.00800           0
      4726 MEMB     36       POPC     C33      CTL2    -0.180000       12.0110           0
      4727 MEMB     36       POPC     H3X      HAL2     0.900000E-01   1.00800           0
      4728 MEMB     36       POPC     H3Y      HAL2     0.900000E-01   1.00800           0
      4729 MEMB     36       POPC     C34      CTL2    -0.180000       12.0110           0
      4730 MEMB     36       POPC     H4X      HAL2     0.900000E-01   1.00800           0
      4731 MEMB     36       POPC     H4Y      HAL2     0.900000E-01   1.00800           0
      4732 MEMB     36       POPC     C35      CTL2    -0.180000       12.0110           0
      4733 MEMB     36       POPC     H5X      HAL2     0.900000E-01   1.00800           0
      4734 MEMB     36       POPC     H5Y      HAL2     0.900000E-01   1.00800           0
      4735 MEMB     36       POPC     C36      CTL2    -0.180000       12.0110           0
      4736 MEMB     36       POPC     H6X      HAL2     0.900000E-01   1.00800           0
      4737 MEMB     36       POPC     H6Y      HAL2     0.900000E-01   1.00800           0
      4738 MEMB     36       POPC     C37      CTL2    -0.180000       12.0110           0
      4739 MEMB     36       POPC     H7X      HAL2     0.900000E-01   1.00800           0
      4740 MEMB     36       POPC     H7Y      HAL2     0.900000E-01   1.00800           0
      4741 MEMB     36       POPC     C38      CTL2    -0.180000       12.0110           0
      4742 MEMB     36       POPC     H8X      HAL2     0.900000E-01   1.00800           0
      4743 MEMB     36       POPC     H8Y      HAL2     0.900000E-01   1.00800           0
      4744 MEMB     36       POPC     C39      CTL2    -0.180000       12.0110           0
      4745 MEMB     36       POPC     H9X      HAL2     0.900000E-01   1.00800           0
      4746 MEMB     36       POPC     H9Y      HAL2     0.900000E-01   1.00800           0
      4747 MEMB     36       POPC     C310     CTL2    -0.180000       12.0110           0
      4748 MEMB     36       POPC     H10X     HAL2     0.900000E-01   1.00800           0
      4749 MEMB     36       POPC     H10Y     HAL2     0.900000E-01   1.00800           0
      4750 MEMB     36       POPC     C311     CTL2    -0.180000       12.0110           0
      4751 MEMB     36       POPC     H11X     HAL2     0.900000E-01   1.00800           0
      4752 MEMB     36       POPC     H11Y     HAL2     0.900000E-01   1.00800           0
      4753 MEMB     36       POPC     C312     CTL2    -0.180000       12.0110           0
      4754 MEMB     36       POPC     H12X     HAL2     0.900000E-01   1.00800           0
      4755 MEMB     36       POPC     H12Y     HAL2     0.900000E-01   1.00800           0
      4756 MEMB     36       POPC     C313     CTL2    -0.180000       12.0110           0
      4757 MEMB     36       POPC     H13X     HAL2     0.900000E-01   1.00800           0
      4758 MEMB     36       POPC     H13Y     HAL2     0.900000E-01   1.00800           0
      4759 MEMB     36       POPC     C314     CTL2    -0.180000       12.0110           0
      4760 MEMB     36       POPC     H14X     HAL2     0.900000E-01   1.00800           0
      4761 MEMB     36       POPC     H14Y     HAL2     0.900000E-01   1.00800           0
      4762 MEMB     36       POPC     C315     CTL2    -0.180000       12.0110           0
      4763 MEMB     36       POPC     H15X     HAL2     0.900000E-01   1.00800           0
      4764 MEMB     36       POPC     H15Y     HAL2     0.900000E-01   1.00800           0
      4765 MEMB     36       POPC     C316     CTL3    -0.270000       12.0110           0
      4766 MEMB     36       POPC     H16X     HAL3     0.900000E-01   1.00800           0
      4767 MEMB     36       POPC     H16Y     HAL3     0.900000E-01   1.00800           0
      4768 MEMB     36       POPC     H16Z     HAL3     0.900000E-01   1.00800           0
      4769 MEMB     37       POPC     N        NTL     -0.600000       14.0070           0
      4770 MEMB     37       POPC     C12      CTL2    -0.100000       12.0110           0
      4771 MEMB     37       POPC     H12A     HL       0.250000       1.00800           0
      4772 MEMB     37       POPC     H12B     HL       0.250000       1.00800           0
      4773 MEMB     37       POPC     C13      CTL5    -0.350000       12.0110           0
      4774 MEMB     37       POPC     H13A     HL       0.250000       1.00800           0
      4775 MEMB     37       POPC     H13B     HL       0.250000       1.00800           0
      4776 MEMB     37       POPC     H13C     HL       0.250000       1.00800           0
      4777 MEMB     37       POPC     C14      CTL5    -0.350000       12.0110           0
      4778 MEMB     37       POPC     H14A     HL       0.250000       1.00800           0
      4779 MEMB     37       POPC     H14B     HL       0.250000       1.00800           0
      4780 MEMB     37       POPC     H14C     HL       0.250000       1.00800           0
      4781 MEMB     37       POPC     C15      CTL5    -0.350000       12.0110           0
      4782 MEMB     37       POPC     H15A     HL       0.250000       1.00800           0
      4783 MEMB     37       POPC     H15B     HL       0.250000       1.00800           0
      4784 MEMB     37       POPC     H15C     HL       0.250000       1.00800           0
      4785 MEMB     37       POPC     C11      CTL2    -0.800000E-01   12.0110           0
      4786 MEMB     37       POPC     H11A     HAL2     0.900000E-01   1.00800           0
      4787 MEMB     37       POPC     H11B     HAL2     0.900000E-01   1.00800           0
      4788 MEMB     37       POPC     P        PL        1.50000       30.9740           0
      4789 MEMB     37       POPC     O13      O2L     -0.780000       15.9994           0
      4790 MEMB     37       POPC     O14      O2L     -0.780000       15.9994           0
      4791 MEMB     37       POPC     O12      OSLP    -0.570000       15.9994           0
      4792 MEMB     37       POPC     O11      OSLP    -0.570000       15.9994           0
      4793 MEMB     37       POPC     C1       CTL2    -0.800000E-01   12.0110           0
      4794 MEMB     37       POPC     HA       HAL2     0.900000E-01   1.00800           0
      4795 MEMB     37       POPC     HB       HAL2     0.900000E-01   1.00800           0
      4796 MEMB     37       POPC     C2       CTL1     0.170000       12.0110           0
      4797 MEMB     37       POPC     HS       HAL1     0.900000E-01   1.00800           0
      4798 MEMB     37       POPC     O21      OSL     -0.490000       15.9994           0
      4799 MEMB     37       POPC     C21      CL       0.900000       12.0110           0
      4800 MEMB     37       POPC     O22      OBL     -0.630000       15.9994           0
      4801 MEMB     37       POPC     C22      CTL2    -0.220000       12.0110           0
      4802 MEMB     37       POPC     H2R      HAL2     0.900000E-01   1.00800           0
      4803 MEMB     37       POPC     H2S      HAL2     0.900000E-01   1.00800           0
      4804 MEMB     37       POPC     C3       CTL2     0.800000E-01   12.0110           0
      4805 MEMB     37       POPC     HX       HAL2     0.900000E-01   1.00800           0
      4806 MEMB     37       POPC     HY       HAL2     0.900000E-01   1.00800           0
      4807 MEMB     37       POPC     O31      OSL     -0.490000       15.9994           0
      4808 MEMB     37       POPC     C31      CL       0.900000       12.0110           0
      4809 MEMB     37       POPC     O32      OBL     -0.630000       15.9994           0
      4810 MEMB     37       POPC     C32      CTL2    -0.220000       12.0110           0
      4811 MEMB     37       POPC     H2X      HAL2     0.900000E-01   1.00800           0
      4812 MEMB     37       POPC     H2Y      HAL2     0.900000E-01   1.00800           0
      4813 MEMB     37       POPC     C23      CTL2    -0.180000       12.0110           0
      4814 MEMB     37       POPC     H3R      HAL2     0.900000E-01   1.00800           0
      4815 MEMB     37       POPC     H3S      HAL2     0.900000E-01   1.00800           0
      4816 MEMB     37       POPC     C24      CTL2    -0.180000       12.0110           0
      4817 MEMB     37       POPC     H4R      HAL2     0.900000E-01   1.00800           0
      4818 MEMB     37       POPC     H4S      HAL2     0.900000E-01   1.00800           0
      4819 MEMB     37       POPC     C25      CTL2    -0.180000       12.0110           0
      4820 MEMB     37       POPC     H5R      HAL2     0.900000E-01   1.00800           0
      4821 MEMB     37       POPC     H5S      HAL2     0.900000E-01   1.00800           0
      4822 MEMB     37       POPC     C26      CTL2    -0.180000       12.0110           0
      4823 MEMB     37       POPC     H6R      HAL2     0.900000E-01   1.00800           0
      4824 MEMB     37       POPC     H6S      HAL2     0.900000E-01   1.00800           0
      4825 MEMB     37       POPC     C27      CTL2    -0.180000       12.0110           0
      4826 MEMB     37       POPC     H7R      HAL2     0.900000E-01   1.00800           0
      4827 MEMB     37       POPC     H7S      HAL2     0.900000E-01   1.00800           0
      4828 MEMB     37       POPC     C28      CTL2    -0.180000       12.0110           0
      4829 MEMB     37       POPC     H8R      HAL2     0.900000E-01   1.00800           0
      4830 MEMB     37       POPC     H8S      HAL2     0.900000E-01   1.00800           0
      4831 MEMB     37       POPC     C29      CEL1    -0.150000       12.0110           0
      4832 MEMB     37       POPC     H91      HEL1     0.150000       1.00800           0
      4833 MEMB     37       POPC     C210     CEL1    -0.150000       12.0110           0
      4834 MEMB     37       POPC     H101     HEL1     0.150000       1.00800           0
      4835 MEMB     37       POPC     C211     CTL2    -0.180000       12.0110           0
      4836 MEMB     37       POPC     H11R     HAL2     0.900000E-01   1.00800           0
      4837 MEMB     37       POPC     H11S     HAL2     0.900000E-01   1.00800           0
      4838 MEMB     37       POPC     C212     CTL2    -0.180000       12.0110           0
      4839 MEMB     37       POPC     H12R     HAL2     0.900000E-01   1.00800           0
      4840 MEMB     37       POPC     H12S     HAL2     0.900000E-01   1.00800           0
      4841 MEMB     37       POPC     C213     CTL2    -0.180000       12.0110           0
      4842 MEMB     37       POPC     H13R     HAL2     0.900000E-01   1.00800           0
      4843 MEMB     37       POPC     H13S     HAL2     0.900000E-01   1.00800           0
      4844 MEMB     37       POPC     C214     CTL2    -0.180000       12.0110           0
      4845 MEMB     37       POPC     H14R     HAL2     0.900000E-01   1.00800           0
      4846 MEMB     37       POPC     H14S     HAL2     0.900000E-01   1.00800           0
      4847 MEMB     37       POPC     C215     CTL2    -0.180000       12.0110           0
      4848 MEMB     37       POPC     H15R     HAL2     0.900000E-01   1.00800           0
      4849 MEMB     37       POPC     H15S     HAL2     0.900000E-01   1.00800           0
      4850 MEMB     37       POPC     C216     CTL2    -0.180000       12.0110           0
      4851 MEMB     37       POPC     H16R     HAL2     0.900000E-01   1.00800           0
      4852 MEMB     37       POPC     H16S     HAL2     0.900000E-01   1.00800           0
      4853 MEMB     37       POPC     C217     CTL2    -0.180000       12.0110           0
      4854 MEMB     37       POPC     H17R     HAL2     0.900000E-01   1.00800           0
      4855 MEMB     37       POPC     H17S     HAL2     0.900000E-01   1.00800           0
      4856 MEMB     37       POPC     C218     CTL3    -0.270000       12.0110           0
      4857 MEMB     37       POPC     H18R     HAL3     0.900000E-01   1.00800           0
      4858 MEMB     37       POPC     H18S     HAL3     0.900000E-01   1.00800           0
      4859 MEMB     37       POPC     H18T     HAL3     0.900000E-01   1.00800           0
      4860 MEMB     37       POPC     C33      CTL2    -0.180000       12.0110           0
      4861 MEMB     37       POPC     H3X      HAL2     0.900000E-01   1.00800           0
      4862 MEMB     37       POPC     H3Y      HAL2     0.900000E-01   1.00800           0
      4863 MEMB     37       POPC     C34      CTL2    -0.180000       12.0110           0
      4864 MEMB     37       POPC     H4X      HAL2     0.900000E-01   1.00800           0
      4865 MEMB     37       POPC     H4Y      HAL2     0.900000E-01   1.00800           0
      4866 MEMB     37       POPC     C35      CTL2    -0.180000       12.0110           0
      4867 MEMB     37       POPC     H5X      HAL2     0.900000E-01   1.00800           0
      4868 MEMB     37       POPC     H5Y      HAL2     0.900000E-01   1.00800           0
      4869 MEMB     37       POPC     C36      CTL2    -0.180000       12.0110           0
      4870 MEMB     37       POPC     H6X      HAL2     0.900000E-01   1.00800           0
      4871 MEMB     37       POPC     H6Y      HAL2     0.900000E-01   1.00800           0
      4872 MEMB     37       POPC     C37      CTL2    -0.180000       12.0110           0
      4873 MEMB     37       POPC     H7X      HAL2     0.900000E-01   1.00800           0
      4874 MEMB     37       POPC     H7Y      HAL2     0.900000E-01   1.00800           0
      4875 MEMB     37       POPC     C38      CTL2    -0.180000       12.0110           0
      4876 MEMB     37       POPC     H8X      HAL2     0.900000E-01   1.00800           0
      4877 MEMB     37       POPC     H8Y      HAL2     0.900000E-01   1.00800           0
      4878 MEMB     37       POPC     C39      CTL2    -0.180000       12.0110           0
      4879 MEMB     37       POPC     H9X      HAL2     0.900000E-01   1.00800           0
      4880 MEMB     37       POPC     H9Y      HAL2     0.900000E-01   1.00800           0
      4881 MEMB     37       POPC     C310     CTL2    -0.180000       12.0110           0
      4882 MEMB     37       POPC     H10X     HAL2     0.900000E-01   1.00800           0
      4883 MEMB     37       POPC     H10Y     HAL2     0.900000E-01   1.00800           0
      4884 MEMB     37       POPC     C311     CTL2    -0.180000       12.0110           0
      4885 MEMB     37       POPC     H11X     HAL2     0.900000E-01   1.00800           0
      4886 MEMB     37       POPC     H11Y     HAL2     0.900000E-01   1.00800           0
      4887 MEMB     37       POPC     C312     CTL2    -0.180000       12.0110           0
      4888 MEMB     37       POPC     H12X     HAL2     0.900000E-01   1.00800           0
      4889 MEMB     37       POPC     H12Y     HAL2     0.900000E-01   1.00800           0
      4890 MEMB     37       POPC     C313     CTL2    -0.180000       12.0110           0
      4891 MEMB     37       POPC     H13X     HAL2     0.900000E-01   1.00800           0
      4892 MEMB     37       POPC     H13Y     HAL2     0.900000E-01   1.00800           0
      4893 MEMB     37       POPC     C314     CTL2    -0.180000       12.0110           0
      4894 MEMB     37       POPC     H14X     HAL2     0.900000E-01   1.00800           0
      4895 MEMB     37       POPC     H14Y     HAL2     0.900000E-01   1.00800           0
      4896 MEMB     37       POPC     C315     CTL2    -0.180000       12.0110           0
      4897 MEMB     37       POPC     H15X     HAL2     0.900000E-01   1.00800           0
      4898 MEMB     37       POPC     H15Y     HAL2     0.900000E-01   1.00800           0
      4899 MEMB     37       POPC     C316     CTL3    -0.270000       12.0110           0
      4900 MEMB     37       POPC     H16X     HAL3     0.900000E-01   1.00800           0
      4901 MEMB     37       POPC     H16Y     HAL3     0.900000E-01   1.00800           0
      4902 MEMB     37       POPC     H16Z     HAL3     0.900000E-01   1.00800           0
      4903 MEMB     38       POPC     N        NTL     -0.600000       14.0070           0
      4904 MEMB     38       POPC     C12      CTL2    -0.100000       12.0110           0
      4905 MEMB     38       POPC     H12A     HL       0.250000       1.00800           0
      4906 MEMB     38       POPC     H12B     HL       0.250000       1.00800           0
      4907 MEMB     38       POPC     C13      CTL5    -0.350000       12.0110           0
      4908 MEMB     38       POPC     H13A     HL       0.250000       1.00800           0
      4909 MEMB     38       POPC     H13B     HL       0.250000       1.00800           0
      4910 MEMB     38       POPC     H13C     HL       0.250000       1.00800           0
      4911 MEMB     38       POPC     C14      CTL5    -0.350000       12.0110           0
      4912 MEMB     38       POPC     H14A     HL       0.250000       1.00800           0
      4913 MEMB     38       POPC     H14B     HL       0.250000       1.00800           0
      4914 MEMB     38       POPC     H14C     HL       0.250000       1.00800           0
      4915 MEMB     38       POPC     C15      CTL5    -0.350000       12.0110           0
      4916 MEMB     38       POPC     H15A     HL       0.250000       1.00800           0
      4917 MEMB     38       POPC     H15B     HL       0.250000       1.00800           0
      4918 MEMB     38       POPC     H15C     HL       0.250000       1.00800           0
      4919 MEMB     38       POPC     C11      CTL2    -0.800000E-01   12.0110           0
      4920 MEMB     38       POPC     H11A     HAL2     0.900000E-01   1.00800           0
      4921 MEMB     38       POPC     H11B     HAL2     0.900000E-01   1.00800           0
      4922 MEMB     38       POPC     P        PL        1.50000       30.9740           0
      4923 MEMB     38       POPC     O13      O2L     -0.780000       15.9994           0
      4924 MEMB     38       POPC     O14      O2L     -0.780000       15.9994           0
      4925 MEMB     38       POPC     O12      OSLP    -0.570000       15.9994           0
      4926 MEMB     38       POPC     O11      OSLP    -0.570000       15.9994           0
      4927 MEMB     38       POPC     C1       CTL2    -0.800000E-01   12.0110           0
      4928 MEMB     38       POPC     HA       HAL2     0.900000E-01   1.00800           0
      4929 MEMB     38       POPC     HB       HAL2     0.900000E-01   1.00800           0
      4930 MEMB     38       POPC     C2       CTL1     0.170000       12.0110           0
      4931 MEMB     38       POPC     HS       HAL1     0.900000E-01   1.00800           0
      4932 MEMB     38       POPC     O21      OSL     -0.490000       15.9994           0
      4933 MEMB     38       POPC     C21      CL       0.900000       12.0110           0
      4934 MEMB     38       POPC     O22      OBL     -0.630000       15.9994           0
      4935 MEMB     38       POPC     C22      CTL2    -0.220000       12.0110           0
      4936 MEMB     38       POPC     H2R      HAL2     0.900000E-01   1.00800           0
      4937 MEMB     38       POPC     H2S      HAL2     0.900000E-01   1.00800           0
      4938 MEMB     38       POPC     C3       CTL2     0.800000E-01   12.0110           0
      4939 MEMB     38       POPC     HX       HAL2     0.900000E-01   1.00800           0
      4940 MEMB     38       POPC     HY       HAL2     0.900000E-01   1.00800           0
      4941 MEMB     38       POPC     O31      OSL     -0.490000       15.9994           0
      4942 MEMB     38       POPC     C31      CL       0.900000       12.0110           0
      4943 MEMB     38       POPC     O32      OBL     -0.630000       15.9994           0
      4944 MEMB     38       POPC     C32      CTL2    -0.220000       12.0110           0
      4945 MEMB     38       POPC     H2X      HAL2     0.900000E-01   1.00800           0
      4946 MEMB     38       POPC     H2Y      HAL2     0.900000E-01   1.00800           0
      4947 MEMB     38       POPC     C23      CTL2    -0.180000       12.0110           0
      4948 MEMB     38       POPC     H3R      HAL2     0.900000E-01   1.00800           0
      4949 MEMB     38       POPC     H3S      HAL2     0.900000E-01   1.00800           0
      4950 MEMB     38       POPC     C24      CTL2    -0.180000       12.0110           0
      4951 MEMB     38       POPC     H4R      HAL2     0.900000E-01   1.00800           0
      4952 MEMB     38       POPC     H4S      HAL2     0.900000E-01   1.00800           0
      4953 MEMB     38       POPC     C25      CTL2    -0.180000       12.0110           0
      4954 MEMB     38       POPC     H5R      HAL2     0.900000E-01   1.00800           0
      4955 MEMB     38       POPC     H5S      HAL2     0.900000E-01   1.00800           0
      4956 MEMB     38       POPC     C26      CTL2    -0.180000       12.0110           0
      4957 MEMB     38       POPC     H6R      HAL2     0.900000E-01   1.00800           0
      4958 MEMB     38       POPC     H6S      HAL2     0.900000E-01   1.00800           0
      4959 MEMB     38       POPC     C27      CTL2    -0.180000       12.0110           0
      4960 MEMB     38       POPC     H7R      HAL2     0.900000E-01   1.00800           0
      4961 MEMB     38       POPC     H7S      HAL2     0.900000E-01   1.00800           0
      4962 MEMB     38       POPC     C28      CTL2    -0.180000       12.0110           0
      4963 MEMB     38       POPC     H8R      HAL2     0.900000E-01   1.00800           0
      4964 MEMB     38       POPC     H8S      HAL2     0.900000E-01   1.00800           0
      4965 MEMB     38       POPC     C29      CEL1    -0.150000       12.0110           0
      4966 MEMB     38       POPC     H91      HEL1     0.150000       1.00800           0
      4967 MEMB     38       POPC     C210     CEL1    -0.150000       12.0110           0
      4968 MEMB     38       POPC     H101     HEL1     0.150000       1.00800           0
      4969 MEMB     38       POPC     C211     CTL2    -0.180000       12.0110           0
      4970 MEMB     38       POPC     H11R     HAL2     0.900000E-01   1.00800           0
      4971 MEMB     38       POPC     H11S     HAL2     0.900000E-01   1.00800           0
      4972 MEMB     38       POPC     C212     CTL2    -0.180000       12.0110           0
      4973 MEMB     38       POPC     H12R     HAL2     0.900000E-01   1.00800           0
      4974 MEMB     38       POPC     H12S     HAL2     0.900000E-01   1.00800           0
      4975 MEMB     38       POPC     C213     CTL2    -0.180000       12.0110           0
      4976 MEMB     38       POPC     H13R     HAL2     0.900000E-01   1.00800           0
      4977 MEMB     38       POPC     H13S     HAL2     0.900000E-01   1.00800           0
      4978 MEMB     38       POPC     C214     CTL2    -0.180000       12.0110           0
      4979 MEMB     38       POPC     H14R     HAL2     0.900000E-01   1.00800           0
      4980 MEMB     38       POPC     H14S     HAL2     0.900000E-01   1.00800           0
      4981 MEMB     38       POPC     C215     CTL2    -0.180000       12.0110           0
      4982 MEMB     38       POPC     H15R     HAL2     0.900000E-01   1.00800           0
      4983 MEMB     38       POPC     H15S     HAL2     0.900000E-01   1.00800           0
      4984 MEMB     38       POPC     C216     CTL2    -0.180000       12.0110           0
      4985 MEMB     38       POPC     H16R     HAL2     0.900000E-01   1.00800           0
      4986 MEMB     38       POPC     H16S     HAL2     0.900000E-01   1.00800           0
      4987 MEMB     38       POPC     C217     CTL2    -0.180000       12.0110           0
      4988 MEMB     38       POPC     H17R     HAL2     0.900000E-01   1.00800           0
      4989 MEMB     38       POPC     H17S     HAL2     0.900000E-01   1.00800           0
      4990 MEMB     38       POPC     C218     CTL3    -0.270000       12.0110           0
      4991 MEMB     38       POPC     H18R     HAL3     0.900000E-01   1.00800           0
      4992 MEMB     38       POPC     H18S     HAL3     0.900000E-01   1.00800           0
      4993 MEMB     38       POPC     H18T     HAL3     0.900000E-01   1.00800           0
      4994 MEMB     38       POPC     C33      CTL2    -0.180000       12.0110           0
      4995 MEMB     38       POPC     H3X      HAL2     0.900000E-01   1.00800           0
      4996 MEMB     38       POPC     H3Y      HAL2     0.900000E-01   1.00800           0
      4997 MEMB     38       POPC     C34      CTL2    -0.180000       12.0110           0
      4998 MEMB     38       POPC     H4X      HAL2     0.900000E-01   1.00800           0
      4999 MEMB     38       POPC     H4Y      HAL2     0.900000E-01   1.00800           0
      5000 MEMB     38       POPC     C35      CTL2    -0.180000       12.0110           0
      5001 MEMB     38       POPC     H5X      HAL2     0.900000E-01   1.00800           0
      5002 MEMB     38       POPC     H5Y      HAL2     0.900000E-01   1.00800           0
      5003 MEMB     38       POPC     C36      CTL2    -0.180000       12.0110           0
      5004 MEMB     38       POPC     H6X      HAL2     0.900000E-01   1.00800           0
      5005 MEMB     38       POPC     H6Y      HAL2     0.900000E-01   1.00800           0
      5006 MEMB     38       POPC     C37      CTL2    -0.180000       12.0110           0
      5007 MEMB     38       POPC     H7X      HAL2     0.900000E-01   1.00800           0
      5008 MEMB     38       POPC     H7Y      HAL2     0.900000E-01   1.00800           0
      5009 MEMB     38       POPC     C38      CTL2    -0.180000       12.0110           0
      5010 MEMB     38       POPC     H8X      HAL2     0.900000E-01   1.00800           0
      5011 MEMB     38       POPC     H8Y      HAL2     0.900000E-01   1.00800           0
      5012 MEMB     38       POPC     C39      CTL2    -0.180000       12.0110           0
      5013 MEMB     38       POPC     H9X      HAL2     0.900000E-01   1.00800           0
      5014 MEMB     38       POPC     H9Y      HAL2     0.900000E-01   1.00800           0
      5015 MEMB     38       POPC     C310     CTL2    -0.180000       12.0110           0
      5016 MEMB     38       POPC     H10X     HAL2     0.900000E-01   1.00800           0
      5017 MEMB     38       POPC     H10Y     HAL2     0.900000E-01   1.00800           0
      5018 MEMB     38       POPC     C311     CTL2    -0.180000       12.0110           0
      5019 MEMB     38       POPC     H11X     HAL2     0.900000E-01   1.00800           0
      5020 MEMB     38       POPC     H11Y     HAL2     0.900000E-01   1.00800           0
      5021 MEMB     38       POPC     C312     CTL2    -0.180000       12.0110           0
      5022 MEMB     38       POPC     H12X     HAL2     0.900000E-01   1.00800           0
      5023 MEMB     38       POPC     H12Y     HAL2     0.900000E-01   1.00800           0
      5024 MEMB     38       POPC     C313     CTL2    -0.180000       12.0110           0
      5025 MEMB     38       POPC     H13X     HAL2     0.900000E-01   1.00800           0
      5026 MEMB     38       POPC     H13Y     HAL2     0.900000E-01   1.00800           0
      5027 MEMB     38       POPC     C314     CTL2    -0.180000       12.0110           0
      5028 MEMB     38       POPC     H14X     HAL2     0.900000E-01   1.00800           0
      5029 MEMB     38       POPC     H14Y     HAL2     0.900000E-01   1.00800           0
      5030 MEMB     38       POPC     C315     CTL2    -0.180000       12.0110           0
      5031 MEMB     38       POPC     H15X     HAL2     0.900000E-01   1.00800           0
      5032 MEMB     38       POPC     H15Y     HAL2     0.900000E-01   1.00800           0
      5033 MEMB     38       POPC     C316     CTL3    -0.270000       12.0110           0
      5034 MEMB     38       POPC     H16X     HAL3     0.900000E-01   1.00800           0
      5035 MEMB     38       POPC     H16Y     HAL3     0.900000E-01   1.00800           0
      5036 MEMB     38       POPC     H16Z     HAL3     0.900000E-01   1.00800           0
      5037 MEMB     39       POPC     N        NTL     -0.600000       14.0070           0
      5038 MEMB     39       POPC     C12      CTL2    -0.100000       12.0110           0
      5039 MEMB     39       POPC     H12A     HL       0.250000       1.00800           0
      5040 MEMB     39       POPC     H12B     HL       0.250000       1.00800           0
      5041 MEMB     39       POPC     C13      CTL5    -0.350000       12.0110           0
      5042 MEMB     39       POPC     H13A     HL       0.250000       1.00800           0
      5043 MEMB     39       POPC     H13B     HL       0.250000       1.00800           0
      5044 MEMB     39       POPC     H13C     HL       0.250000       1.00800           0
      5045 MEMB     39       POPC     C14      CTL5    -0.350000       12.0110           0
      5046 MEMB     39       POPC     H14A     HL       0.250000       1.00800           0
      5047 MEMB     39       POPC     H14B     HL       0.250000       1.00800           0
      5048 MEMB     39       POPC     H14C     HL       0.250000       1.00800           0
      5049 MEMB     39       POPC     C15      CTL5    -0.350000       12.0110           0
      5050 MEMB     39       POPC     H15A     HL       0.250000       1.00800           0
      5051 MEMB     39       POPC     H15B     HL       0.250000       1.00800           0
      5052 MEMB     39       POPC     H15C     HL       0.250000       1.00800           0
      5053 MEMB     39       POPC     C11      CTL2    -0.800000E-01   12.0110           0
      5054 MEMB     39       POPC     H11A     HAL2     0.900000E-01   1.00800           0
      5055 MEMB     39       POPC     H11B     HAL2     0.900000E-01   1.00800           0
      5056 MEMB     39       POPC     P        PL        1.50000       30.9740           0
      5057 MEMB     39       POPC     O13      O2L     -0.780000       15.9994           0
      5058 MEMB     39       POPC     O14      O2L     -0.780000       15.9994           0
      5059 MEMB     39       POPC     O12      OSLP    -0.570000       15.9994           0
      5060 MEMB     39       POPC     O11      OSLP    -0.570000       15.9994           0
      5061 MEMB     39       POPC     C1       CTL2    -0.800000E-01   12.0110           0
      5062 MEMB     39       POPC     HA       HAL2     0.900000E-01   1.00800           0
      5063 MEMB     39       POPC     HB       HAL2     0.900000E-01   1.00800           0
      5064 MEMB     39       POPC     C2       CTL1     0.170000       12.0110           0
      5065 MEMB     39       POPC     HS       HAL1     0.900000E-01   1.00800           0
      5066 MEMB     39       POPC     O21      OSL     -0.490000       15.9994           0
      5067 MEMB     39       POPC     C21      CL       0.900000       12.0110           0
      5068 MEMB     39       POPC     O22      OBL     -0.630000       15.9994           0
      5069 MEMB     39       POPC     C22      CTL2    -0.220000       12.0110           0
      5070 MEMB     39       POPC     H2R      HAL2     0.900000E-01   1.00800           0
      5071 MEMB     39       POPC     H2S      HAL2     0.900000E-01   1.00800           0
      5072 MEMB     39       POPC     C3       CTL2     0.800000E-01   12.0110           0
      5073 MEMB     39       POPC     HX       HAL2     0.900000E-01   1.00800           0
      5074 MEMB     39       POPC     HY       HAL2     0.900000E-01   1.00800           0
      5075 MEMB     39       POPC     O31      OSL     -0.490000       15.9994           0
      5076 MEMB     39       POPC     C31      CL       0.900000       12.0110           0
      5077 MEMB     39       POPC     O32      OBL     -0.630000       15.9994           0
      5078 MEMB     39       POPC     C32      CTL2    -0.220000       12.0110           0
      5079 MEMB     39       POPC     H2X      HAL2     0.900000E-01   1.00800           0
      5080 MEMB     39       POPC     H2Y      HAL2     0.900000E-01   1.00800           0
      5081 MEMB     39       POPC     C23      CTL2    -0.180000       12.0110           0
      5082 MEMB     39       POPC     H3R      HAL2     0.900000E-01   1.00800           0
      5083 MEMB     39       POPC     H3S      HAL2     0.900000E-01   1.00800           0
      5084 MEMB     39       POPC     C24      CTL2    -0.180000       12.0110           0
      5085 MEMB     39       POPC     H4R      HAL2     0.900000E-01   1.00800           0
      5086 MEMB     39       POPC     H4S      HAL2     0.900000E-01   1.00800           0
      5087 MEMB     39       POPC     C25      CTL2    -0.180000       12.0110           0
      5088 MEMB     39       POPC     H5R      HAL2     0.900000E-01   1.00800           0
      5089 MEMB     39       POPC     H5S      HAL2     0.900000E-01   1.00800           0
      5090 MEMB     39       POPC     C26      CTL2    -0.180000       12.0110           0
      5091 MEMB     39       POPC     H6R      HAL2     0.900000E-01   1.00800           0
      5092 MEMB     39       POPC     H6S      HAL2     0.900000E-01   1.00800           0
      5093 MEMB     39       POPC     C27      CTL2    -0.180000       12.0110           0
      5094 MEMB     39       POPC     H7R      HAL2     0.900000E-01   1.00800           0
      5095 MEMB     39       POPC     H7S      HAL2     0.900000E-01   1.00800           0
      5096 MEMB     39       POPC     C28      CTL2    -0.180000       12.0110           0
      5097 MEMB     39       POPC     H8R      HAL2     0.900000E-01   1.00800           0
      5098 MEMB     39       POPC     H8S      HAL2     0.900000E-01   1.00800           0
      5099 MEMB     39       POPC     C29      CEL1    -0.150000       12.0110           0
      5100 MEMB     39       POPC     H91      HEL1     0.150000       1.00800           0
      5101 MEMB     39       POPC     C210     CEL1    -0.150000       12.0110           0
      5102 MEMB     39       POPC     H101     HEL1     0.150000       1.00800           0
      5103 MEMB     39       POPC     C211     CTL2    -0.180000       12.0110           0
      5104 MEMB     39       POPC     H11R     HAL2     0.900000E-01   1.00800           0
      5105 MEMB     39       POPC     H11S     HAL2     0.900000E-01   1.00800           0
      5106 MEMB     39       POPC     C212     CTL2    -0.180000       12.0110           0
      5107 MEMB     39       POPC     H12R     HAL2     0.900000E-01   1.00800           0
      5108 MEMB     39       POPC     H12S     HAL2     0.900000E-01   1.00800           0
      5109 MEMB     39       POPC     C213     CTL2    -0.180000       12.0110           0
      5110 MEMB     39       POPC     H13R     HAL2     0.900000E-01   1.00800           0
      5111 MEMB     39       POPC     H13S     HAL2     0.900000E-01   1.00800           0
      5112 MEMB     39       POPC     C214     CTL2    -0.180000       12.0110           0
      5113 MEMB     39       POPC     H14R     HAL2     0.900000E-01   1.00800           0
      5114 MEMB     39       POPC     H14S     HAL2     0.900000E-01   1.00800           0
      5115 MEMB     39       POPC     C215     CTL2    -0.180000       12.0110           0
      5116 MEMB     39       POPC     H15R     HAL2     0.900000E-01   1.00800           0
      5117 MEMB     39       POPC     H15S     HAL2     0.900000E-01   1.00800           0
      5118 MEMB     39       POPC     C216     CTL2    -0.180000       12.0110           0
      5119 MEMB     39       POPC     H16R     HAL2     0.900000E-01   1.00800           0
      5120 MEMB     39       POPC     H16S     HAL2     0.900000E-01   1.00800           0
      5121 MEMB     39       POPC     C217     CTL2    -0.180000       12.0110           0
      5122 MEMB     39       POPC     H17R     HAL2     0.900000E-01   1.00800           0
      5123 MEMB     39       POPC     H17S     HAL2     0.900000E-01   1.00800           0
      5124 MEMB     39       POPC     C218     CTL3    -0.270000       12.0110           0
      5125 MEMB     39       POPC     H18R     HAL3     0.900000E-01   1.00800           0
      5126 MEMB     39       POPC     H18S     HAL3     0.900000E-01   1.00800           0
      5127 MEMB     39       POPC     H18T     HAL3     0.900000E-01   1.00800           0
      5128 MEMB     39       POPC     C33      CTL2    -0.180000       12.0110           0
      5129 MEMB     39       POPC     H3X      HAL2     0.900000E-01   1.00800           0
      5130 MEMB     39       POPC     H3Y      HAL2     0.900000E-01   1.00800           0
      5131 MEMB     39       POPC     C34      CTL2    -0.180000       12.0110           0
      5132 MEMB     39       POPC     H4X      HAL2     0.900000E-01   1.00800           0
      5133 MEMB     39       POPC     H4Y      HAL2     0.900000E-01   1.00800           0
      5134 MEMB     39       POPC     C35      CTL2    -0.180000       12.0110           0
      5135 MEMB     39       POPC     H5X      HAL2     0.900000E-01   1.00800           0
      5136 MEMB     39       POPC     H5Y      HAL2     0.900000E-01   1.00800           0
      5137 MEMB     39       POPC     C36      CTL2    -0.180000       12.0110           0
      5138 MEMB     39       POPC     H6X      HAL2     0.900000E-01   1.00800           0
      5139 MEMB     39       POPC     H6Y      HAL2     0.900000E-01   1.00800           0
      5140 MEMB     39       POPC     C37      CTL2    -0.180000       12.0110           0
      5141 MEMB     39       POPC     H7X      HAL2     0.900000E-01   1.00800           0
      5142 MEMB     39       POPC     H7Y      HAL2     0.900000E-01   1.00800           0
      5143 MEMB     39       POPC     C38      CTL2    -0.180000       12.0110           0
      5144 MEMB     39       POPC     H8X      HAL2     0.900000E-01   1.00800           0
      5145 MEMB     39       POPC     H8Y      HAL2     0.900000E-01   1.00800           0
      5146 MEMB     39       POPC     C39      CTL2    -0.180000       12.0110           0
      5147 MEMB     39       POPC     H9X      HAL2     0.900000E-01   1.00800           0
      5148 MEMB     39       POPC     H9Y      HAL2     0.900000E-01   1.00800           0
      5149 MEMB     39       POPC     C310     CTL2    -0.180000       12.0110           0
      5150 MEMB     39       POPC     H10X     HAL2     0.900000E-01   1.00800           0
      5151 MEMB     39       POPC     H10Y     HAL2     0.900000E-01   1.00800           0
      5152 MEMB     39       POPC     C311     CTL2    -0.180000       12.0110           0
      5153 MEMB     39       POPC     H11X     HAL2     0.900000E-01   1.00800           0
      5154 MEMB     39       POPC     H11Y     HAL2     0.900000E-01   1.00800           0
      5155 MEMB     39       POPC     C312     CTL2    -0.180000       12.0110           0
      5156 MEMB     39       POPC     H12X     HAL2     0.900000E-01   1.00800           0
      5157 MEMB     39       POPC     H12Y     HAL2     0.900000E-01   1.00800           0
      5158 MEMB     39       POPC     C313     CTL2    -0.180000       12.0110           0
      5159 MEMB     39       POPC     H13X     HAL2     0.900000E-01   1.00800           0
      5160 MEMB     39       POPC     H13Y     HAL2     0.900000E-01   1.00800           0
      5161 MEMB     39       POPC     C314     CTL2    -0.180000       12.0110           0
      5162 MEMB     39       POPC     H14X     HAL2     0.900000E-01   1.00800           0
      5163 MEMB     39       POPC     H14Y     HAL2     0.900000E-01   1.00800           0
      5164 MEMB     39       POPC     C315     CTL2    -0.180000       12.0110           0
      5165 MEMB     39       POPC     H15X     HAL2     0.900000E-01   1.00800           0
      5166 MEMB     39       POPC     H15Y     HAL2     0.900000E-01   1.00800           0
      5167 MEMB     39       POPC     C316     CTL3    -0.270000       12.0110           0
      5168 MEMB     39       POPC     H16X     HAL3     0.900000E-01   1.00800           0
      5169 MEMB     39       POPC     H16Y     HAL3     0.900000E-01   1.00800           0
      5170 MEMB     39       POPC     H16Z     HAL3     0.900000E-01   1.00800           0
      5171 MEMB     40       POPC     N        NTL     -0.600000       14.0070           0
      5172 MEMB     40       POPC     C12      CTL2    -0.100000       12.0110           0
      5173 MEMB     40       POPC     H12A     HL       0.250000       1.00800           0
      5174 MEMB     40       POPC     H12B     HL       0.250000       1.00800           0
      5175 MEMB     40       POPC     C13      CTL5    -0.350000       12.0110           0
      5176 MEMB     40       POPC     H13A     HL       0.250000       1.00800           0
      5177 MEMB     40       POPC     H13B     HL       0.250000       1.00800           0
      5178 MEMB     40       POPC     H13C     HL       0.250000       1.00800           0
      5179 MEMB     40       POPC     C14      CTL5    -0.350000       12.0110           0
      5180 MEMB     40       POPC     H14A     HL       0.250000       1.00800           0
      5181 MEMB     40       POPC     H14B     HL       0.250000       1.00800           0
      5182 MEMB     40       POPC     H14C     HL       0.250000       1.00800           0
      5183 MEMB     40       POPC     C15      CTL5    -0.350000       12.0110           0
      5184 MEMB     40       POPC     H15A     HL       0.250000       1.00800           0
      5185 MEMB     40       POPC     H15B     HL       0.250000       1.00800           0
      5186 MEMB     40       POPC     H15C     HL       0.250000       1.00800           0
      5187 MEMB     40       POPC     C11      CTL2    -0.800000E-01   12.0110           0
      5188 MEMB     40       POPC     H11A     HAL2     0.900000E-01   1.00800           0
      5189 MEMB     40       POPC     H11B     HAL2     0.900000E-01   1.00800           0
      5190 MEMB     40       POPC     P        PL        1.50000       30.9740           0
      5191 MEMB     40       POPC     O13      O2L     -0.780000       15.9994           0
      5192 MEMB     40       POPC     O14      O2L     -0.780000       15.9994           0
      5193 MEMB     40       POPC     O12      OSLP    -0.570000       15.9994           0
      5194 MEMB     40       POPC     O11      OSLP    -0.570000       15.9994           0
      5195 MEMB     40       POPC     C1       CTL2    -0.800000E-01   12.0110           0
      5196 MEMB     40       POPC     HA       HAL2     0.900000E-01   1.00800           0
      5197 MEMB     40       POPC     HB       HAL2     0.900000E-01   1.00800           0
      5198 MEMB     40       POPC     C2       CTL1     0.170000       12.0110           0
      5199 MEMB     40       POPC     HS       HAL1     0.900000E-01   1.00800           0
      5200 MEMB     40       POPC     O21      OSL     -0.490000       15.9994           0
      5201 MEMB     40       POPC     C21      CL       0.900000       12.0110           0
      5202 MEMB     40       POPC     O22      OBL     -0.630000       15.9994           0
      5203 MEMB     40       POPC     C22      CTL2    -0.220000       12.0110           0
      5204 MEMB     40       POPC     H2R      HAL2     0.900000E-01   1.00800           0
      5205 MEMB     40       POPC     H2S      HAL2     0.900000E-01   1.00800           0
      5206 MEMB     40       POPC     C3       CTL2     0.800000E-01   12.0110           0
      5207 MEMB     40       POPC     HX       HAL2     0.900000E-01   1.00800           0
      5208 MEMB     40       POPC     HY       HAL2     0.900000E-01   1.00800           0
      5209 MEMB     40       POPC     O31      OSL     -0.490000       15.9994           0
      5210 MEMB     40       POPC     C31      CL       0.900000       12.0110           0
      5211 MEMB     40       POPC     O32      OBL     -0.630000       15.9994           0
      5212 MEMB     40       POPC     C32      CTL2    -0.220000       12.0110           0
      5213 MEMB     40       POPC     H2X      HAL2     0.900000E-01   1.00800           0
      5214 MEMB     40       POPC     H2Y      HAL2     0.900000E-01   1.00800           0
      5215 MEMB     40       POPC     C23      CTL2    -0.180000       12.0110           0
      5216 MEMB     40       POPC     H3R      HAL2     0.900000E-01   1.00800           0
      5217 MEMB     40       POPC     H3S      HAL2     0.900000E-01   1.00800           0
      5218 MEMB     40       POPC     C24      CTL2    -0.180000       12.0110           0
      5219 MEMB     40       POPC     H4R      HAL2     0.900000E-01   1.00800           0
      5220 MEMB     40       POPC     H4S      HAL2     0.900000E-01   1.00800           0
      5221 MEMB     40       POPC     C25      CTL2    -0.180000       12.0110           0
      5222 MEMB     40       POPC     H5R      HAL2     0.900000E-01   1.00800           0
      5223 MEMB     40       POPC     H5S      HAL2     0.900000E-01   1.00800           0
      5224 MEMB     40       POPC     C26      CTL2    -0.180000       12.0110           0
      5225 MEMB     40       POPC     H6R      HAL2     0.900000E-01   1.00800           0
      5226 MEMB     40       POPC     H6S      HAL2     0.900000E-01   1.00800           0
      5227 MEMB     40       POPC     C27      CTL2    -0.180000       12.0110           0
      5228 MEMB     40       POPC     H7R      HAL2     0.900000E-01   1.00800           0
      5229 MEMB     40       POPC     H7S      HAL2     0.900000E-01   1.00800           0
      5230 MEMB     40       POPC     C28      CTL2    -0.180000       12.0110           0
      5231 MEMB     40       POPC     H8R      HAL2     0.900000E-01   1.00800           0
      5232 MEMB     40       POPC     H8S      HAL2     0.900000E-01   1.00800           0
      5233 MEMB     40       POPC     C29      CEL1    -0.150000       12.0110           0
      5234 MEMB     40       POPC     H91      HEL1     0.150000       1.00800           0
      5235 MEMB     40       POPC     C210     CEL1    -0.150000       12.0110           0
      5236 MEMB     40       POPC     H101     HEL1     0.150000       1.00800           0
      5237 MEMB     40       POPC     C211     CTL2    -0.180000       12.0110           0
      5238 MEMB     40       POPC     H11R     HAL2     0.900000E-01   1.00800           0
      5239 MEMB     40       POPC     H11S     HAL2     0.900000E-01   1.00800           0
      5240 MEMB     40       POPC     C212     CTL2    -0.180000       12.0110           0
      5241 MEMB     40       POPC     H12R     HAL2     0.900000E-01   1.00800           0
      5242 MEMB     40       POPC     H12S     HAL2     0.900000E-01   1.00800           0
      5243 MEMB     40       POPC     C213     CTL2    -0.180000       12.0110           0
      5244 MEMB     40       POPC     H13R     HAL2     0.900000E-01   1.00800           0
      5245 MEMB     40       POPC     H13S     HAL2     0.900000E-01   1.00800           0
      5246 MEMB     40       POPC     C214     CTL2    -0.180000       12.0110           0
      5247 MEMB     40       POPC     H14R     HAL2     0.900000E-01   1.00800           0
      5248 MEMB     40       POPC     H14S     HAL2     0.900000E-01   1.00800           0
      5249 MEMB     40       POPC     C215     CTL2    -0.180000       12.0110           0
      5250 MEMB     40       POPC     H15R     HAL2     0.900000E-01   1.00800           0
      5251 MEMB     40       POPC     H15S     HAL2     0.900000E-01   1.00800           0
      5252 MEMB     40       POPC     C216     CTL2    -0.180000       12.0110           0
      5253 MEMB     40       POPC     H16R     HAL2     0.900000E-01   1.00800           0
      5254 MEMB     40       POPC     H16S     HAL2     0.900000E-01   1.00800           0
      5255 MEMB     40       POPC     C217     CTL2    -0.180000       12.0110           0
      5256 MEMB     40       POPC     H17R     HAL2     0.900000E-01   1.00800           0
      5257 MEMB     40       POPC     H17S     HAL2     0.900000E-01   1.00800           0
      5258 MEMB     40       POPC     C218     CTL3    -0.270000       12.0110           0
      5259 MEMB     40       POPC     H18R     HAL3     0.900000E-01   1.00800           0
      5260 MEMB     40       POPC     H18S     HAL3     0.900000E-01   1.00800           0
      5261 MEMB     40       POPC     H18T     HAL3     0.900000E-01   1.00800           0
      5262 MEMB     40       POPC     C33      CTL2    -0.180000       12.0110           0
      5263 MEMB     40       POPC     H3X      HAL2     0.900000E-01   1.00800           0
      5264 MEMB     40       POPC     H3Y      HAL2     0.900000E-01   1.00800           0
      5265 MEMB     40       POPC     C34      CTL2    -0.180000       12.0110           0
      5266 MEMB     40       POPC     H4X      HAL2     0.900000E-01   1.00800           0
      5267 MEMB     40       POPC     H4Y      HAL2     0.900000E-01   1.00800           0
      5268 MEMB     40       POPC     C35      CTL2    -0.180000       12.0110           0
      5269 MEMB     40       POPC     H5X      HAL2     0.900000E-01   1.00800           0
      5270 MEMB     40       POPC     H5Y      HAL2     0.900000E-01   1.00800           0
      5271 MEMB     40       POPC     C36      CTL2    -0.180000       12.0110           0
      5272 MEMB     40       POPC     H6X      HAL2     0.900000E-01   1.00800           0
      5273 MEMB     40       POPC     H6Y      HAL2     0.900000E-01   1.00800           0
      5274 MEMB     40       POPC     C37      CTL2    -0.180000       12.0110           0
      5275 MEMB     40       POPC     H7X      HAL2     0.900000E-01   1.00800           0
      5276 MEMB     40       POPC     H7Y      HAL2     0.900000E-01   1.00800           0
      5277 MEMB     40       POPC     C38      CTL2    -0.180000       12.0110           0
      5278 MEMB     40       POPC     H8X      HAL2     0.900000E-01   1.00800           0
      5279 MEMB     40       POPC     H8Y      HAL2     0.900000E-01   1.00800           0
      5280 MEMB     40       POPC     C39      CTL2    -0.180000       12.0110           0
      5281 MEMB     40       POPC     H9X      HAL2     0.900000E-01   1.00800           0
      5282 MEMB     40       POPC     H9Y      HAL2     0.900000E-01   1.00800           0
      5283 MEMB     40       POPC     C310     CTL2    -0.180000       12.0110           0
      5284 MEMB     40       POPC     H10X     HAL2     0.900000E-01   1.00800           0
      5285 MEMB     40       POPC     H10Y     HAL2     0.900000E-01   1.00800           0
      5286 MEMB     40       POPC     C311     CTL2    -0.180000       12.0110           0
      5287 MEMB     40       POPC     H11X     HAL2     0.900000E-01   1.00800           0
      5288 MEMB     40       POPC     H11Y     HAL2     0.900000E-01   1.00800           0
      5289 MEMB     40       POPC     C312     CTL2    -0.180000       12.0110           0
      5290 MEMB     40       POPC     H12X     HAL2     0.900000E-01   1.00800           0
      5291 MEMB     40       POPC     H12Y     HAL2     0.900000E-01   1.00800           0
      5292 MEMB     40       POPC     C313     CTL2    -0.180000       12.0110           0
      5293 MEMB     40       POPC     H13X     HAL2     0.900000E-01   1.00800           0
      5294 MEMB     40       POPC     H13Y     HAL2     0.900000E-01   1.00800           0
      5295 MEMB     40       POPC     C314     CTL2    -0.180000       12.0110           0
      5296 MEMB     40       POPC     H14X     HAL2     0.900000E-01   1.00800           0
      5297 MEMB     40       POPC     H14Y     HAL2     0.900000E-01   1.00800           0
      5298 MEMB     40       POPC     C315     CTL2    -0.180000       12.0110           0
      5299 MEMB     40       POPC     H15X     HAL2     0.900000E-01   1.00800           0
      5300 MEMB     40       POPC     H15Y     HAL2     0.900000E-01   1.00800           0
      5301 MEMB     40       POPC     C316     CTL3    -0.270000       12.0110           0
      5302 MEMB     40       POPC     H16X     HAL3     0.900000E-01   1.00800           0
      5303 MEMB     40       POPC     H16Y     HAL3     0.900000E-01   1.00800           0
      5304 MEMB     40       POPC     H16Z     HAL3     0.900000E-01   1.00800           0
      5305 MEMB     41       POPC     N        NTL     -0.600000       14.0070           0
      5306 MEMB     41       POPC     C12      CTL2    -0.100000       12.0110           0
      5307 MEMB     41       POPC     H12A     HL       0.250000       1.00800           0
      5308 MEMB     41       POPC     H12B     HL       0.250000       1.00800           0
      5309 MEMB     41       POPC     C13      CTL5    -0.350000       12.0110           0
      5310 MEMB     41       POPC     H13A     HL       0.250000       1.00800           0
      5311 MEMB     41       POPC     H13B     HL       0.250000       1.00800           0
      5312 MEMB     41       POPC     H13C     HL       0.250000       1.00800           0
      5313 MEMB     41       POPC     C14      CTL5    -0.350000       12.0110           0
      5314 MEMB     41       POPC     H14A     HL       0.250000       1.00800           0
      5315 MEMB     41       POPC     H14B     HL       0.250000       1.00800           0
      5316 MEMB     41       POPC     H14C     HL       0.250000       1.00800           0
      5317 MEMB     41       POPC     C15      CTL5    -0.350000       12.0110           0
      5318 MEMB     41       POPC     H15A     HL       0.250000       1.00800           0
      5319 MEMB     41       POPC     H15B     HL       0.250000       1.00800           0
      5320 MEMB     41       POPC     H15C     HL       0.250000       1.00800           0
      5321 MEMB     41       POPC     C11      CTL2    -0.800000E-01   12.0110           0
      5322 MEMB     41       POPC     H11A     HAL2     0.900000E-01   1.00800           0
      5323 MEMB     41       POPC     H11B     HAL2     0.900000E-01   1.00800           0
      5324 MEMB     41       POPC     P        PL        1.50000       30.9740           0
      5325 MEMB     41       POPC     O13      O2L     -0.780000       15.9994           0
      5326 MEMB     41       POPC     O14      O2L     -0.780000       15.9994           0
      5327 MEMB     41       POPC     O12      OSLP    -0.570000       15.9994           0
      5328 MEMB     41       POPC     O11      OSLP    -0.570000       15.9994           0
      5329 MEMB     41       POPC     C1       CTL2    -0.800000E-01   12.0110           0
      5330 MEMB     41       POPC     HA       HAL2     0.900000E-01   1.00800           0
      5331 MEMB     41       POPC     HB       HAL2     0.900000E-01   1.00800           0
      5332 MEMB     41       POPC     C2       CTL1     0.170000       12.0110           0
      5333 MEMB     41       POPC     HS       HAL1     0.900000E-01   1.00800           0
      5334 MEMB     41       POPC     O21      OSL     -0.490000       15.9994           0
      5335 MEMB     41       POPC     C21      CL       0.900000       12.0110           0
      5336 MEMB     41       POPC     O22      OBL     -0.630000       15.9994           0
      5337 MEMB     41       POPC     C22      CTL2    -0.220000       12.0110           0
      5338 MEMB     41       POPC     H2R      HAL2     0.900000E-01   1.00800           0
      5339 MEMB     41       POPC     H2S      HAL2     0.900000E-01   1.00800           0
      5340 MEMB     41       POPC     C3       CTL2     0.800000E-01   12.0110           0
      5341 MEMB     41       POPC     HX       HAL2     0.900000E-01   1.00800           0
      5342 MEMB     41       POPC     HY       HAL2     0.900000E-01   1.00800           0
      5343 MEMB     41       POPC     O31      OSL     -0.490000       15.9994           0
      5344 MEMB     41       POPC     C31      CL       0.900000       12.0110           0
      5345 MEMB     41       POPC     O32      OBL     -0.630000       15.9994           0
      5346 MEMB     41       POPC     C32      CTL2    -0.220000       12.0110           0
      5347 MEMB     41       POPC     H2X      HAL2     0.900000E-01   1.00800           0
      5348 MEMB     41       POPC     H2Y      HAL2     0.900000E-01   1.00800           0
      5349 MEMB     41       POPC     C23      CTL2    -0.180000       12.0110           0
      5350 MEMB     41       POPC     H3R      HAL2     0.900000E-01   1.00800           0
      5351 MEMB     41       POPC     H3S      HAL2     0.900000E-01   1.00800           0
      5352 MEMB     41       POPC     C24      CTL2    -0.180000       12.0110           0
      5353 MEMB     41       POPC     H4R      HAL2     0.900000E-01   1.00800           0
      5354 MEMB     41       POPC     H4S      HAL2     0.900000E-01   1.00800           0
      5355 MEMB     41       POPC     C25      CTL2    -0.180000       12.0110           0
      5356 MEMB     41       POPC     H5R      HAL2     0.900000E-01   1.00800           0
      5357 MEMB     41       POPC     H5S      HAL2     0.900000E-01   1.00800           0
      5358 MEMB     41       POPC     C26      CTL2    -0.180000       12.0110           0
      5359 MEMB     41       POPC     H6R      HAL2     0.900000E-01   1.00800           0
      5360 MEMB     41       POPC     H6S      HAL2     0.900000E-01   1.00800           0
      5361 MEMB     41       POPC     C27      CTL2    -0.180000       12.0110           0
      5362 MEMB     41       POPC     H7R      HAL2     0.900000E-01   1.00800           0
      5363 MEMB     41       POPC     H7S      HAL2     0.900000E-01   1.00800           0
      5364 MEMB     41       POPC     C28      CTL2    -0.180000       12.0110           0
      5365 MEMB     41       POPC     H8R      HAL2     0.900000E-01   1.00800           0
      5366 MEMB     41       POPC     H8S      HAL2     0.900000E-01   1.00800           0
      5367 MEMB     41       POPC     C29      CEL1    -0.150000       12.0110           0
      5368 MEMB     41       POPC     H91      HEL1     0.150000       1.00800           0
      5369 MEMB     41       POPC     C210     CEL1    -0.150000       12.0110           0
      5370 MEMB     41       POPC     H101     HEL1     0.150000       1.00800           0
      5371 MEMB     41       POPC     C211     CTL2    -0.180000       12.0110           0
      5372 MEMB     41       POPC     H11R     HAL2     0.900000E-01   1.00800           0
      5373 MEMB     41       POPC     H11S     HAL2     0.900000E-01   1.00800           0
      5374 MEMB     41       POPC     C212     CTL2    -0.180000       12.0110           0
      5375 MEMB     41       POPC     H12R     HAL2     0.900000E-01   1.00800           0
      5376 MEMB     41       POPC     H12S     HAL2     0.900000E-01   1.00800           0
      5377 MEMB     41       POPC     C213     CTL2    -0.180000       12.0110           0
      5378 MEMB     41       POPC     H13R     HAL2     0.900000E-01   1.00800           0
      5379 MEMB     41       POPC     H13S     HAL2     0.900000E-01   1.00800           0
      5380 MEMB     41       POPC     C214     CTL2    -0.180000       12.0110           0
      5381 MEMB     41       POPC     H14R     HAL2     0.900000E-01   1.00800           0
      5382 MEMB     41       POPC     H14S     HAL2     0.900000E-01   1.00800           0
      5383 MEMB     41       POPC     C215     CTL2    -0.180000       12.0110           0
      5384 MEMB     41       POPC     H15R     HAL2     0.900000E-01   1.00800           0
      5385 MEMB     41       POPC     H15S     HAL2     0.900000E-01   1.00800           0
      5386 MEMB     41       POPC     C216     CTL2    -0.180000       12.0110           0
      5387 MEMB     41       POPC     H16R     HAL2     0.900000E-01   1.00800           0
      5388 MEMB     41       POPC     H16S     HAL2     0.900000E-01   1.00800           0
      5389 MEMB     41       POPC     C217     CTL2    -0.180000       12.0110           0
      5390 MEMB     41       POPC     H17R     HAL2     0.900000E-01   1.00800           0
      5391 MEMB     41       POPC     H17S     HAL2     0.900000E-01   1.00800           0
      5392 MEMB     41       POPC     C218     CTL3    -0.270000       12.0110           0
      5393 MEMB     41       POPC     H18R     HAL3     0.900000E-01   1.00800           0
      5394 MEMB     41       POPC     H18S     HAL3     0.900000E-01   1.00800           0
      5395 MEMB     41       POPC     H18T     HAL3     0.900000E-01   1.00800           0
      5396 MEMB     41       POPC     C33      CTL2    -0.180000       12.0110           0
      5397 MEMB     41       POPC     H3X      HAL2     0.900000E-01   1.00800           0
      5398 MEMB     41       POPC     H3Y      HAL2     0.900000E-01   1.00800           0
      5399 MEMB     41       POPC     C34      CTL2    -0.180000       12.0110           0
      5400 MEMB     41       POPC     H4X      HAL2     0.900000E-01   1.00800           0
      5401 MEMB     41       POPC     H4Y      HAL2     0.900000E-01   1.00800           0
      5402 MEMB     41       POPC     C35      CTL2    -0.180000       12.0110           0
      5403 MEMB     41       POPC     H5X      HAL2     0.900000E-01   1.00800           0
      5404 MEMB     41       POPC     H5Y      HAL2     0.900000E-01   1.00800           0
      5405 MEMB     41       POPC     C36      CTL2    -0.180000       12.0110           0
      5406 MEMB     41       POPC     H6X      HAL2     0.900000E-01   1.00800           0
      5407 MEMB     41       POPC     H6Y      HAL2     0.900000E-01   1.00800           0
      5408 MEMB     41       POPC     C37      CTL2    -0.180000       12.0110           0
      5409 MEMB     41       POPC     H7X      HAL2     0.900000E-01   1.00800           0
      5410 MEMB     41       POPC     H7Y      HAL2     0.900000E-01   1.00800           0
      5411 MEMB     41       POPC     C38      CTL2    -0.180000       12.0110           0
      5412 MEMB     41       POPC     H8X      HAL2     0.900000E-01   1.00800           0
      5413 MEMB     41       POPC     H8Y      HAL2     0.900000E-01   1.00800           0
      5414 MEMB     41       POPC     C39      CTL2    -0.180000       12.0110           0
      5415 MEMB     41       POPC     H9X      HAL2     0.900000E-01   1.00800           0
      5416 MEMB     41       POPC     H9Y      HAL2     0.900000E-01   1.00800           0
      5417 MEMB     41       POPC     C310     CTL2    -0.180000       12.0110           0
      5418 MEMB     41       POPC     H10X     HAL2     0.900000E-01   1.00800           0
      5419 MEMB     41       POPC     H10Y     HAL2     0.900000E-01   1.00800           0
      5420 MEMB     41       POPC     C311     CTL2    -0.180000       12.0110           0
      5421 MEMB     41       POPC     H11X     HAL2     0.900000E-01   1.00800           0
      5422 MEMB     41       POPC     H11Y     HAL2     0.900000E-01   1.00800           0
      5423 MEMB     41       POPC     C312     CTL2    -0.180000       12.0110           0
      5424 MEMB     41       POPC     H12X     HAL2     0.900000E-01   1.00800           0
      5425 MEMB     41       POPC     H12Y     HAL2     0.900000E-01   1.00800           0
      5426 MEMB     41       POPC     C313     CTL2    -0.180000       12.0110           0
      5427 MEMB     41       POPC     H13X     HAL2     0.900000E-01   1.00800           0
      5428 MEMB     41       POPC     H13Y     HAL2     0.900000E-01   1.00800           0
      5429 MEMB     41       POPC     C314     CTL2    -0.180000       12.0110           0
      5430 MEMB     41       POPC     H14X     HAL2     0.900000E-01   1.00800           0
      5431 MEMB     41       POPC     H14Y     HAL2     0.900000E-01   1.00800           0
      5432 MEMB     41       POPC     C315     CTL2    -0.180000       12.0110           0
      5433 MEMB     41       POPC     H15X     HAL2     0.900000E-01   1.00800           0
      5434 MEMB     41       POPC     H15Y     HAL2     0.900000E-01   1.00800           0
      5435 MEMB     41       POPC     C316     CTL3    -0.270000       12.0110           0
      5436 MEMB     41       POPC     H16X     HAL3     0.900000E-01   1.00800           0
      5437 MEMB     41       POPC     H16Y     HAL3     0.900000E-01   1.00800           0
      5438 MEMB     41       POPC     H16Z     HAL3     0.900000E-01   1.00800           0
      5439 MEMB     42       POPC     N        NTL     -0.600000       14.0070           0
      5440 MEMB     42       POPC     C12      CTL2    -0.100000       12.0110           0
      5441 MEMB     42       POPC     H12A     HL       0.250000       1.00800           0
      5442 MEMB     42       POPC     H12B     HL       0.250000       1.00800           0
      5443 MEMB     42       POPC     C13      CTL5    -0.350000       12.0110           0
      5444 MEMB     42       POPC     H13A     HL       0.250000       1.00800           0
      5445 MEMB     42       POPC     H13B     HL       0.250000       1.00800           0
      5446 MEMB     42       POPC     H13C     HL       0.250000       1.00800           0
      5447 MEMB     42       POPC     C14      CTL5    -0.350000       12.0110           0
      5448 MEMB     42       POPC     H14A     HL       0.250000       1.00800           0
      5449 MEMB     42       POPC     H14B     HL       0.250000       1.00800           0
      5450 MEMB     42       POPC     H14C     HL       0.250000       1.00800           0
      5451 MEMB     42       POPC     C15      CTL5    -0.350000       12.0110           0
      5452 MEMB     42       POPC     H15A     HL       0.250000       1.00800           0
      5453 MEMB     42       POPC     H15B     HL       0.250000       1.00800           0
      5454 MEMB     42       POPC     H15C     HL       0.250000       1.00800           0
      5455 MEMB     42       POPC     C11      CTL2    -0.800000E-01   12.0110           0
      5456 MEMB     42       POPC     H11A     HAL2     0.900000E-01   1.00800           0
      5457 MEMB     42       POPC     H11B     HAL2     0.900000E-01   1.00800           0
      5458 MEMB     42       POPC     P        PL        1.50000       30.9740           0
      5459 MEMB     42       POPC     O13      O2L     -0.780000       15.9994           0
      5460 MEMB     42       POPC     O14      O2L     -0.780000       15.9994           0
      5461 MEMB     42       POPC     O12      OSLP    -0.570000       15.9994           0
      5462 MEMB     42       POPC     O11      OSLP    -0.570000       15.9994           0
      5463 MEMB     42       POPC     C1       CTL2    -0.800000E-01   12.0110           0
      5464 MEMB     42       POPC     HA       HAL2     0.900000E-01   1.00800           0
      5465 MEMB     42       POPC     HB       HAL2     0.900000E-01   1.00800           0
      5466 MEMB     42       POPC     C2       CTL1     0.170000       12.0110           0
      5467 MEMB     42       POPC     HS       HAL1     0.900000E-01   1.00800           0
      5468 MEMB     42       POPC     O21      OSL     -0.490000       15.9994           0
      5469 MEMB     42       POPC     C21      CL       0.900000       12.0110           0
      5470 MEMB     42       POPC     O22      OBL     -0.630000       15.9994           0
      5471 MEMB     42       POPC     C22      CTL2    -0.220000       12.0110           0
      5472 MEMB     42       POPC     H2R      HAL2     0.900000E-01   1.00800           0
      5473 MEMB     42       POPC     H2S      HAL2     0.900000E-01   1.00800           0
      5474 MEMB     42       POPC     C3       CTL2     0.800000E-01   12.0110           0
      5475 MEMB     42       POPC     HX       HAL2     0.900000E-01   1.00800           0
      5476 MEMB     42       POPC     HY       HAL2     0.900000E-01   1.00800           0
      5477 MEMB     42       POPC     O31      OSL     -0.490000       15.9994           0
      5478 MEMB     42       POPC     C31      CL       0.900000       12.0110           0
      5479 MEMB     42       POPC     O32      OBL     -0.630000       15.9994           0
      5480 MEMB     42       POPC     C32      CTL2    -0.220000       12.0110           0
      5481 MEMB     42       POPC     H2X      HAL2     0.900000E-01   1.00800           0
      5482 MEMB     42       POPC     H2Y      HAL2     0.900000E-01   1.00800           0
      5483 MEMB     42       POPC     C23      CTL2    -0.180000       12.0110           0
      5484 MEMB     42       POPC     H3R      HAL2     0.900000E-01   1.00800           0
      5485 MEMB     42       POPC     H3S      HAL2     0.900000E-01   1.00800           0
      5486 MEMB     42       POPC     C24      CTL2    -0.180000       12.0110           0
      5487 MEMB     42       POPC     H4R      HAL2     0.900000E-01   1.00800           0
      5488 MEMB     42       POPC     H4S      HAL2     0.900000E-01   1.00800           0
      5489 MEMB     42       POPC     C25      CTL2    -0.180000       12.0110           0
      5490 MEMB     42       POPC     H5R      HAL2     0.900000E-01   1.00800           0
      5491 MEMB     42       POPC     H5S      HAL2     0.900000E-01   1.00800           0
      5492 MEMB     42       POPC     C26      CTL2    -0.180000       12.0110           0
      5493 MEMB     42       POPC     H6R      HAL2     0.900000E-01   1.00800           0
      5494 MEMB     42       POPC     H6S      HAL2     0.900000E-01   1.00800           0
      5495 MEMB     42       POPC     C27      CTL2    -0.180000       12.0110           0
      5496 MEMB     42       POPC     H7R      HAL2     0.900000E-01   1.00800           0
      5497 MEMB     42       POPC     H7S      HAL2     0.900000E-01   1.00800           0
      5498 MEMB     42       POPC     C28      CTL2    -0.180000       12.0110           0
      5499 MEMB     42       POPC     H8R      HAL2     0.900000E-01   1.00800           0
      5500 MEMB     42       POPC     H8S      HAL2     0.900000E-01   1.00800           0
      5501 MEMB     42       POPC     C29      CEL1    -0.150000       12.0110           0
      5502 MEMB     42       POPC     H91      HEL1     0.150000       1.00800           0
      5503 MEMB     42       POPC     C210     CEL1    -0.150000       12.0110           0
      5504 MEMB     42       POPC     H101     HEL1     0.150000       1.00800           0
      5505 MEMB     42       POPC     C211     CTL2    -0.180000       12.0110           0
      5506 MEMB     42       POPC     H11R     HAL2     0.900000E-01   1.00800           0
      5507 MEMB     42       POPC     H11S     HAL2     0.900000E-01   1.00800           0
      5508 MEMB     42       POPC     C212     CTL2    -0.180000       12.0110           0
      5509 MEMB     42       POPC     H12R     HAL2     0.900000E-01   1.00800           0
      5510 MEMB     42       POPC     H12S     HAL2     0.900000E-01   1.00800           0
      5511 MEMB     42       POPC     C213     CTL2    -0.180000       12.0110           0
      5512 MEMB     42       POPC     H13R     HAL2     0.900000E-01   1.00800           0
      5513 MEMB     42       POPC     H13S     HAL2     0.900000E-01   1.00800           0
      5514 MEMB     42       POPC     C214     CTL2    -0.180000       12.0110           0
      5515 MEMB     42       POPC     H14R     HAL2     0.900000E-01   1.00800           0
      5516 MEMB     42       POPC     H14S     HAL2     0.900000E-01   1.00800           0
      5517 MEMB     42       POPC     C215     CTL2    -0.180000       12.0110           0
      5518 MEMB     42       POPC     H15R     HAL2     0.900000E-01   1.00800           0
      5519 MEMB     42       POPC     H15S     HAL2     0.900000E-01   1.00800           0
      5520 MEMB     42       POPC     C216     CTL2    -0.180000       12.0110           0
      5521 MEMB     42       POPC     H16R     HAL2     0.900000E-01   1.00800           0
      5522 MEMB     42       POPC     H16S     HAL2     0.900000E-01   1.00800           0
      5523 MEMB     42       POPC     C217     CTL2    -0.180000       12.0110           0
      5524 MEMB     42       POPC     H17R     HAL2     0.900000E-01   1.00800           0
      5525 MEMB     42       POPC     H17S     HAL2     0.900000E-01   1.00800           0
      5526 MEMB     42       POPC     C218     CTL3    -0.270000       12.0110           0
      5527 MEMB     42       POPC     H18R     HAL3     0.900000E-01   1.00800           0
      5528 MEMB     42       POPC     H18S     HAL3     0.900000E-01   1.00800           0
      5529 MEMB     42       POPC     H18T     HAL3     0.900000E-01   1.00800           0
      5530 MEMB     42       POPC     C33      CTL2    -0.180000       12.0110           0
      5531 MEMB     42       POPC     H3X      HAL2     0.900000E-01   1.00800           0
      5532 MEMB     42       POPC     H3Y      HAL2     0.900000E-01   1.00800           0
      5533 MEMB     42       POPC     C34      CTL2    -0.180000       12.0110           0
      5534 MEMB     42       POPC     H4X      HAL2     0.900000E-01   1.00800           0
      5535 MEMB     42       POPC     H4Y      HAL2     0.900000E-01   1.00800           0
      5536 MEMB     42       POPC     C35      CTL2    -0.180000       12.0110           0
      5537 MEMB     42       POPC     H5X      HAL2     0.900000E-01   1.00800           0
      5538 MEMB     42       POPC     H5Y      HAL2     0.900000E-01   1.00800           0
      5539 MEMB     42       POPC     C36      CTL2    -0.180000       12.0110           0
      5540 MEMB     42       POPC     H6X      HAL2     0.900000E-01   1.00800           0
      5541 MEMB     42       POPC     H6Y      HAL2     0.900000E-01   1.00800           0
      5542 MEMB     42       POPC     C37      CTL2    -0.180000       12.0110           0
      5543 MEMB     42       POPC     H7X      HAL2     0.900000E-01   1.00800           0
      5544 MEMB     42       POPC     H7Y      HAL2     0.900000E-01   1.00800           0
      5545 MEMB     42       POPC     C38      CTL2    -0.180000       12.0110           0
      5546 MEMB     42       POPC     H8X      HAL2     0.900000E-01   1.00800           0
      5547 MEMB     42       POPC     H8Y      HAL2     0.900000E-01   1.00800           0
      5548 MEMB     42       POPC     C39      CTL2    -0.180000       12.0110           0
      5549 MEMB     42       POPC     H9X      HAL2     0.900000E-01   1.00800           0
      5550 MEMB     42       POPC     H9Y      HAL2     0.900000E-01   1.00800           0
      5551 MEMB     42       POPC     C310     CTL2    -0.180000       12.0110           0
      5552 MEMB     42       POPC     H10X     HAL2     0.900000E-01   1.00800           0
      5553 MEMB     42       POPC     H10Y     HAL2     0.900000E-01   1.00800           0
      5554 MEMB     42       POPC     C311     CTL2    -0.180000       12.0110           0
      5555 MEMB     42       POPC     H11X     HAL2     0.900000E-01   1.00800           0
      5556 MEMB     42       POPC     H11Y     HAL2     0.900000E-01   1.00800           0
      5557 MEMB     42       POPC     C312     CTL2    -0.180000       12.0110           0
      5558 MEMB     42       POPC     H12X     HAL2     0.900000E-01   1.00800           0
      5559 MEMB     42       POPC     H12Y     HAL2     0.900000E-01   1.00800           0
      5560 MEMB     42       POPC     C313     CTL2    -0.180000       12.0110           0
      5561 MEMB     42       POPC     H13X     HAL2     0.900000E-01   1.00800           0
      5562 MEMB     42       POPC     H13Y     HAL2     0.900000E-01   1.00800           0
      5563 MEMB     42       POPC     C314     CTL2    -0.180000       12.0110           0
      5564 MEMB     42       POPC     H14X     HAL2     0.900000E-01   1.00800           0
      5565 MEMB     42       POPC     H14Y     HAL2     0.900000E-01   1.00800           0
      5566 MEMB     42       POPC     C315     CTL2    -0.180000       12.0110           0
      5567 MEMB     42       POPC     H15X     HAL2     0.900000E-01   1.00800           0
      5568 MEMB     42       POPC     H15Y     HAL2     0.900000E-01   1.00800           0
      5569 MEMB     42       POPC     C316     CTL3    -0.270000       12.0110           0
      5570 MEMB     42       POPC     H16X     HAL3     0.900000E-01   1.00800           0
      5571 MEMB     42       POPC     H16Y     HAL3     0.900000E-01   1.00800           0
      5572 MEMB     42       POPC     H16Z     HAL3     0.900000E-01   1.00800           0
      5573 MEMB     43       POPC     N        NTL     -0.600000       14.0070           0
      5574 MEMB     43       POPC     C12      CTL2    -0.100000       12.0110           0
      5575 MEMB     43       POPC     H12A     HL       0.250000       1.00800           0
      5576 MEMB     43       POPC     H12B     HL       0.250000       1.00800           0
      5577 MEMB     43       POPC     C13      CTL5    -0.350000       12.0110           0
      5578 MEMB     43       POPC     H13A     HL       0.250000       1.00800           0
      5579 MEMB     43       POPC     H13B     HL       0.250000       1.00800           0
      5580 MEMB     43       POPC     H13C     HL       0.250000       1.00800           0
      5581 MEMB     43       POPC     C14      CTL5    -0.350000       12.0110           0
      5582 MEMB     43       POPC     H14A     HL       0.250000       1.00800           0
      5583 MEMB     43       POPC     H14B     HL       0.250000       1.00800           0
      5584 MEMB     43       POPC     H14C     HL       0.250000       1.00800           0
      5585 MEMB     43       POPC     C15      CTL5    -0.350000       12.0110           0
      5586 MEMB     43       POPC     H15A     HL       0.250000       1.00800           0
      5587 MEMB     43       POPC     H15B     HL       0.250000       1.00800           0
      5588 MEMB     43       POPC     H15C     HL       0.250000       1.00800           0
      5589 MEMB     43       POPC     C11      CTL2    -0.800000E-01   12.0110           0
      5590 MEMB     43       POPC     H11A     HAL2     0.900000E-01   1.00800           0
      5591 MEMB     43       POPC     H11B     HAL2     0.900000E-01   1.00800           0
      5592 MEMB     43       POPC     P        PL        1.50000       30.9740           0
      5593 MEMB     43       POPC     O13      O2L     -0.780000       15.9994           0
      5594 MEMB     43       POPC     O14      O2L     -0.780000       15.9994           0
      5595 MEMB     43       POPC     O12      OSLP    -0.570000       15.9994           0
      5596 MEMB     43       POPC     O11      OSLP    -0.570000       15.9994           0
      5597 MEMB     43       POPC     C1       CTL2    -0.800000E-01   12.0110           0
      5598 MEMB     43       POPC     HA       HAL2     0.900000E-01   1.00800           0
      5599 MEMB     43       POPC     HB       HAL2     0.900000E-01   1.00800           0
      5600 MEMB     43       POPC     C2       CTL1     0.170000       12.0110           0
      5601 MEMB     43       POPC     HS       HAL1     0.900000E-01   1.00800           0
      5602 MEMB     43       POPC     O21      OSL     -0.490000       15.9994           0
      5603 MEMB     43       POPC     C21      CL       0.900000       12.0110           0
      5604 MEMB     43       POPC     O22      OBL     -0.630000       15.9994           0
      5605 MEMB     43       POPC     C22      CTL2    -0.220000       12.0110           0
      5606 MEMB     43       POPC     H2R      HAL2     0.900000E-01   1.00800           0
      5607 MEMB     43       POPC     H2S      HAL2     0.900000E-01   1.00800           0
      5608 MEMB     43       POPC     C3       CTL2     0.800000E-01   12.0110           0
      5609 MEMB     43       POPC     HX       HAL2     0.900000E-01   1.00800           0
      5610 MEMB     43       POPC     HY       HAL2     0.900000E-01   1.00800           0
      5611 MEMB     43       POPC     O31      OSL     -0.490000       15.9994           0
      5612 MEMB     43       POPC     C31      CL       0.900000       12.0110           0
      5613 MEMB     43       POPC     O32      OBL     -0.630000       15.9994           0
      5614 MEMB     43       POPC     C32      CTL2    -0.220000       12.0110           0
      5615 MEMB     43       POPC     H2X      HAL2     0.900000E-01   1.00800           0
      5616 MEMB     43       POPC     H2Y      HAL2     0.900000E-01   1.00800           0
      5617 MEMB     43       POPC     C23      CTL2    -0.180000       12.0110           0
      5618 MEMB     43       POPC     H3R      HAL2     0.900000E-01   1.00800           0
      5619 MEMB     43       POPC     H3S      HAL2     0.900000E-01   1.00800           0
      5620 MEMB     43       POPC     C24      CTL2    -0.180000       12.0110           0
      5621 MEMB     43       POPC     H4R      HAL2     0.900000E-01   1.00800           0
      5622 MEMB     43       POPC     H4S      HAL2     0.900000E-01   1.00800           0
      5623 MEMB     43       POPC     C25      CTL2    -0.180000       12.0110           0
      5624 MEMB     43       POPC     H5R      HAL2     0.900000E-01   1.00800           0
      5625 MEMB     43       POPC     H5S      HAL2     0.900000E-01   1.00800           0
      5626 MEMB     43       POPC     C26      CTL2    -0.180000       12.0110           0
      5627 MEMB     43       POPC     H6R      HAL2     0.900000E-01   1.00800           0
      5628 MEMB     43       POPC     H6S      HAL2     0.900000E-01   1.00800           0
      5629 MEMB     43       POPC     C27      CTL2    -0.180000       12.0110           0
      5630 MEMB     43       POPC     H7R      HAL2     0.900000E-01   1.00800           0
      5631 MEMB     43       POPC     H7S      HAL2     0.900000E-01   1.00800           0
      5632 MEMB     43       POPC     C28      CTL2    -0.180000       12.0110           0
      5633 MEMB     43       POPC     H8R      HAL2     0.900000E-01   1.00800           0
      5634 MEMB     43       POPC     H8S      HAL2     0.900000E-01   1.00800           0
      5635 MEMB     43       POPC     C29      CEL1    -0.150000       12.0110           0
      5636 MEMB     43       POPC     H91      HEL1     0.150000       1.00800           0
      5637 MEMB     43       POPC     C210     CEL1    -0.150000       12.0110           0
      5638 MEMB     43       POPC     H101     HEL1     0.150000       1.00800           0
      5639 MEMB     43       POPC     C211     CTL2    -0.180000       12.0110           0
      5640 MEMB     43       POPC     H11R     HAL2     0.900000E-01   1.00800           0
      5641 MEMB     43       POPC     H11S     HAL2     0.900000E-01   1.00800           0
      5642 MEMB     43       POPC     C212     CTL2    -0.180000       12.0110           0
      5643 MEMB     43       POPC     H12R     HAL2     0.900000E-01   1.00800           0
      5644 MEMB     43       POPC     H12S     HAL2     0.900000E-01   1.00800           0
      5645 MEMB     43       POPC     C213     CTL2    -0.180000       12.0110           0
      5646 MEMB     43       POPC     H13R     HAL2     0.900000E-01   1.00800           0
      5647 MEMB     43       POPC     H13S     HAL2     0.900000E-01   1.00800           0
      5648 MEMB     43       POPC     C214     CTL2    -0.180000       12.0110           0
      5649 MEMB     43       POPC     H14R     HAL2     0.900000E-01   1.00800           0
      5650 MEMB     43       POPC     H14S     HAL2     0.900000E-01   1.00800           0
      5651 MEMB     43       POPC     C215     CTL2    -0.180000       12.0110           0
      5652 MEMB     43       POPC     H15R     HAL2     0.900000E-01   1.00800           0
      5653 MEMB     43       POPC     H15S     HAL2     0.900000E-01   1.00800           0
      5654 MEMB     43       POPC     C216     CTL2    -0.180000       12.0110           0
      5655 MEMB     43       POPC     H16R     HAL2     0.900000E-01   1.00800           0
      5656 MEMB     43       POPC     H16S     HAL2     0.900000E-01   1.00800           0
      5657 MEMB     43       POPC     C217     CTL2    -0.180000       12.0110           0
      5658 MEMB     43       POPC     H17R     HAL2     0.900000E-01   1.00800           0
      5659 MEMB     43       POPC     H17S     HAL2     0.900000E-01   1.00800           0
      5660 MEMB     43       POPC     C218     CTL3    -0.270000       12.0110           0
      5661 MEMB     43       POPC     H18R     HAL3     0.900000E-01   1.00800           0
      5662 MEMB     43       POPC     H18S     HAL3     0.900000E-01   1.00800           0
      5663 MEMB     43       POPC     H18T     HAL3     0.900000E-01   1.00800           0
      5664 MEMB     43       POPC     C33      CTL2    -0.180000       12.0110           0
      5665 MEMB     43       POPC     H3X      HAL2     0.900000E-01   1.00800           0
      5666 MEMB     43       POPC     H3Y      HAL2     0.900000E-01   1.00800           0
      5667 MEMB     43       POPC     C34      CTL2    -0.180000       12.0110           0
      5668 MEMB     43       POPC     H4X      HAL2     0.900000E-01   1.00800           0
      5669 MEMB     43       POPC     H4Y      HAL2     0.900000E-01   1.00800           0
      5670 MEMB     43       POPC     C35      CTL2    -0.180000       12.0110           0
      5671 MEMB     43       POPC     H5X      HAL2     0.900000E-01   1.00800           0
      5672 MEMB     43       POPC     H5Y      HAL2     0.900000E-01   1.00800           0
      5673 MEMB     43       POPC     C36      CTL2    -0.180000       12.0110           0
      5674 MEMB     43       POPC     H6X      HAL2     0.900000E-01   1.00800           0
      5675 MEMB     43       POPC     H6Y      HAL2     0.900000E-01   1.00800           0
      5676 MEMB     43       POPC     C37      CTL2    -0.180000       12.0110           0
      5677 MEMB     43       POPC     H7X      HAL2     0.900000E-01   1.00800           0
      5678 MEMB     43       POPC     H7Y      HAL2     0.900000E-01   1.00800           0
      5679 MEMB     43       POPC     C38      CTL2    -0.180000       12.0110           0
      5680 MEMB     43       POPC     H8X      HAL2     0.900000E-01   1.00800           0
      5681 MEMB     43       POPC     H8Y      HAL2     0.900000E-01   1.00800           0
      5682 MEMB     43       POPC     C39      CTL2    -0.180000       12.0110           0
      5683 MEMB     43       POPC     H9X      HAL2     0.900000E-01   1.00800           0
      5684 MEMB     43       POPC     H9Y      HAL2     0.900000E-01   1.00800           0
      5685 MEMB     43       POPC     C310     CTL2    -0.180000       12.0110           0
      5686 MEMB     43       POPC     H10X     HAL2     0.900000E-01   1.00800           0
      5687 MEMB     43       POPC     H10Y     HAL2     0.900000E-01   1.00800           0
      5688 MEMB     43       POPC     C311     CTL2    -0.180000       12.0110           0
      5689 MEMB     43       POPC     H11X     HAL2     0.900000E-01   1.00800           0
      5690 MEMB     43       POPC     H11Y     HAL2     0.900000E-01   1.00800           0
      5691 MEMB     43       POPC     C312     CTL2    -0.180000       12.0110           0
      5692 MEMB     43       POPC     H12X     HAL2     0.900000E-01   1.00800           0
      5693 MEMB     43       POPC     H12Y     HAL2     0.900000E-01   1.00800           0
      5694 MEMB     43       POPC     C313     CTL2    -0.180000       12.0110           0
      5695 MEMB     43       POPC     H13X     HAL2     0.900000E-01   1.00800           0
      5696 MEMB     43       POPC     H13Y     HAL2     0.900000E-01   1.00800           0
      5697 MEMB     43       POPC     C314     CTL2    -0.180000       12.0110           0
      5698 MEMB     43       POPC     H14X     HAL2     0.900000E-01   1.00800           0
      5699 MEMB     43       POPC     H14Y     HAL2     0.900000E-01   1.00800           0
      5700 MEMB     43       POPC     C315     CTL2    -0.180000       12.0110           0
      5701 MEMB     43       POPC     H15X     HAL2     0.900000E-01   1.00800           0
      5702 MEMB     43       POPC     H15Y     HAL2     0.900000E-01   1.00800           0
      5703 MEMB     43       POPC     C316     CTL3    -0.270000       12.0110           0
      5704 MEMB     43       POPC     H16X     HAL3     0.900000E-01   1.00800           0
      5705 MEMB     43       POPC     H16Y     HAL3     0.900000E-01   1.00800           0
      5706 MEMB     43       POPC     H16Z     HAL3     0.900000E-01   1.00800           0
      5707 MEMB     44       POPC     N        NTL     -0.600000       14.0070           0
      5708 MEMB     44       POPC     C12      CTL2    -0.100000       12.0110           0
      5709 MEMB     44       POPC     H12A     HL       0.250000       1.00800           0
      5710 MEMB     44       POPC     H12B     HL       0.250000       1.00800           0
      5711 MEMB     44       POPC     C13      CTL5    -0.350000       12.0110           0
      5712 MEMB     44       POPC     H13A     HL       0.250000       1.00800           0
      5713 MEMB     44       POPC     H13B     HL       0.250000       1.00800           0
      5714 MEMB     44       POPC     H13C     HL       0.250000       1.00800           0
      5715 MEMB     44       POPC     C14      CTL5    -0.350000       12.0110           0
      5716 MEMB     44       POPC     H14A     HL       0.250000       1.00800           0
      5717 MEMB     44       POPC     H14B     HL       0.250000       1.00800           0
      5718 MEMB     44       POPC     H14C     HL       0.250000       1.00800           0
      5719 MEMB     44       POPC     C15      CTL5    -0.350000       12.0110           0
      5720 MEMB     44       POPC     H15A     HL       0.250000       1.00800           0
      5721 MEMB     44       POPC     H15B     HL       0.250000       1.00800           0
      5722 MEMB     44       POPC     H15C     HL       0.250000       1.00800           0
      5723 MEMB     44       POPC     C11      CTL2    -0.800000E-01   12.0110           0
      5724 MEMB     44       POPC     H11A     HAL2     0.900000E-01   1.00800           0
      5725 MEMB     44       POPC     H11B     HAL2     0.900000E-01   1.00800           0
      5726 MEMB     44       POPC     P        PL        1.50000       30.9740           0
      5727 MEMB     44       POPC     O13      O2L     -0.780000       15.9994           0
      5728 MEMB     44       POPC     O14      O2L     -0.780000       15.9994           0
      5729 MEMB     44       POPC     O12      OSLP    -0.570000       15.9994           0
      5730 MEMB     44       POPC     O11      OSLP    -0.570000       15.9994           0
      5731 MEMB     44       POPC     C1       CTL2    -0.800000E-01   12.0110           0
      5732 MEMB     44       POPC     HA       HAL2     0.900000E-01   1.00800           0
      5733 MEMB     44       POPC     HB       HAL2     0.900000E-01   1.00800           0
      5734 MEMB     44       POPC     C2       CTL1     0.170000       12.0110           0
      5735 MEMB     44       POPC     HS       HAL1     0.900000E-01   1.00800           0
      5736 MEMB     44       POPC     O21      OSL     -0.490000       15.9994           0
      5737 MEMB     44       POPC     C21      CL       0.900000       12.0110           0
      5738 MEMB     44       POPC     O22      OBL     -0.630000       15.9994           0
      5739 MEMB     44       POPC     C22      CTL2    -0.220000       12.0110           0
      5740 MEMB     44       POPC     H2R      HAL2     0.900000E-01   1.00800           0
      5741 MEMB     44       POPC     H2S      HAL2     0.900000E-01   1.00800           0
      5742 MEMB     44       POPC     C3       CTL2     0.800000E-01   12.0110           0
      5743 MEMB     44       POPC     HX       HAL2     0.900000E-01   1.00800           0
      5744 MEMB     44       POPC     HY       HAL2     0.900000E-01   1.00800           0
      5745 MEMB     44       POPC     O31      OSL     -0.490000       15.9994           0
      5746 MEMB     44       POPC     C31      CL       0.900000       12.0110           0
      5747 MEMB     44       POPC     O32      OBL     -0.630000       15.9994           0
      5748 MEMB     44       POPC     C32      CTL2    -0.220000       12.0110           0
      5749 MEMB     44       POPC     H2X      HAL2     0.900000E-01   1.00800           0
      5750 MEMB     44       POPC     H2Y      HAL2     0.900000E-01   1.00800           0
      5751 MEMB     44       POPC     C23      CTL2    -0.180000       12.0110           0
      5752 MEMB     44       POPC     H3R      HAL2     0.900000E-01   1.00800           0
      5753 MEMB     44       POPC     H3S      HAL2     0.900000E-01   1.00800           0
      5754 MEMB     44       POPC     C24      CTL2    -0.180000       12.0110           0
      5755 MEMB     44       POPC     H4R      HAL2     0.900000E-01   1.00800           0
      5756 MEMB     44       POPC     H4S      HAL2     0.900000E-01   1.00800           0
      5757 MEMB     44       POPC     C25      CTL2    -0.180000       12.0110           0
      5758 MEMB     44       POPC     H5R      HAL2     0.900000E-01   1.00800           0
      5759 MEMB     44       POPC     H5S      HAL2     0.900000E-01   1.00800           0
      5760 MEMB     44       POPC     C26      CTL2    -0.180000       12.0110           0
      5761 MEMB     44       POPC     H6R      HAL2     0.900000E-01   1.00800           0
      5762 MEMB     44       POPC     H6S      HAL2     0.900000E-01   1.00800           0
      5763 MEMB     44       POPC     C27      CTL2    -0.180000       12.0110           0
      5764 MEMB     44       POPC     H7R      HAL2     0.900000E-01   1.00800           0
      5765 MEMB     44       POPC     H7S      HAL2     0.900000E-01   1.00800           0
      5766 MEMB     44       POPC     C28      CTL2    -0.180000       12.0110           0
      5767 MEMB     44       POPC     H8R      HAL2     0.900000E-01   1.00800           0
      5768 MEMB     44       POPC     H8S      HAL2     0.900000E-01   1.00800           0
      5769 MEMB     44       POPC     C29      CEL1    -0.150000       12.0110           0
      5770 MEMB     44       POPC     H91      HEL1     0.150000       1.00800           0
      5771 MEMB     44       POPC     C210     CEL1    -0.150000       12.0110           0
      5772 MEMB     44       POPC     H101     HEL1     0.150000       1.00800           0
      5773 MEMB     44       POPC     C211     CTL2    -0.180000       12.0110           0
      5774 MEMB     44       POPC     H11R     HAL2     0.900000E-01   1.00800           0
      5775 MEMB     44       POPC     H11S     HAL2     0.900000E-01   1.00800           0
      5776 MEMB     44       POPC     C212     CTL2    -0.180000       12.0110           0
      5777 MEMB     44       POPC     H12R     HAL2     0.900000E-01   1.00800           0
      5778 MEMB     44       POPC     H12S     HAL2     0.900000E-01   1.00800           0
      5779 MEMB     44       POPC     C213     CTL2    -0.180000       12.0110           0
      5780 MEMB     44       POPC     H13R     HAL2     0.900000E-01   1.00800           0
      5781 MEMB     44       POPC     H13S     HAL2     0.900000E-01   1.00800           0
      5782 MEMB     44       POPC     C214     CTL2    -0.180000       12.0110           0
      5783 MEMB     44       POPC     H14R     HAL2     0.900000E-01   1.00800           0
      5784 MEMB     44       POPC     H14S     HAL2     0.900000E-01   1.00800           0
      5785 MEMB     44       POPC     C215     CTL2    -0.180000       12.0110           0
      5786 MEMB     44       POPC     H15R     HAL2     0.900000E-01   1.00800           0
      5787 MEMB     44       POPC     H15S     HAL2     0.900000E-01   1.00800           0
      5788 MEMB     44       POPC     C216     CTL2    -0.180000       12.0110           0
      5789 MEMB     44       POPC     H16R     HAL2     0.900000E-01   1.00800           0
      5790 MEMB     44       POPC     H16S     HAL2     0.900000E-01   1.00800           0
      5791 MEMB     44       POPC     C217     CTL2    -0.180000       12.0110           0
      5792 MEMB     44       POPC     H17R     HAL2     0.900000E-01   1.00800           0
      5793 MEMB     44       POPC     H17S     HAL2     0.900000E-01   1.00800           0
      5794 MEMB     44       POPC     C218     CTL3    -0.270000       12.0110           0
      5795 MEMB     44       POPC     H18R     HAL3     0.900000E-01   1.00800           0
      5796 MEMB     44       POPC     H18S     HAL3     0.900000E-01   1.00800           0
      5797 MEMB     44       POPC     H18T     HAL3     0.900000E-01   1.00800           0
      5798 MEMB     44       POPC     C33      CTL2    -0.180000       12.0110           0
      5799 MEMB     44       POPC     H3X      HAL2     0.900000E-01   1.00800           0
      5800 MEMB     44       POPC     H3Y      HAL2     0.900000E-01   1.00800           0
      5801 MEMB     44       POPC     C34      CTL2    -0.180000       12.0110           0
      5802 MEMB     44       POPC     H4X      HAL2     0.900000E-01   1.00800           0
      5803 MEMB     44       POPC     H4Y      HAL2     0.900000E-01   1.00800           0
      5804 MEMB     44       POPC     C35      CTL2    -0.180000       12.0110           0
      5805 MEMB     44       POPC     H5X      HAL2     0.900000E-01   1.00800           0
      5806 MEMB     44       POPC     H5Y      HAL2     0.900000E-01   1.00800           0
      5807 MEMB     44       POPC     C36      CTL2    -0.180000       12.0110           0
      5808 MEMB     44       POPC     H6X      HAL2     0.900000E-01   1.00800           0
      5809 MEMB     44       POPC     H6Y      HAL2     0.900000E-01   1.00800           0
      5810 MEMB     44       POPC     C37      CTL2    -0.180000       12.0110           0
      5811 MEMB     44       POPC     H7X      HAL2     0.900000E-01   1.00800           0
      5812 MEMB     44       POPC     H7Y      HAL2     0.900000E-01   1.00800           0
      5813 MEMB     44       POPC     C38      CTL2    -0.180000       12.0110           0
      5814 MEMB     44       POPC     H8X      HAL2     0.900000E-01   1.00800           0
      5815 MEMB     44       POPC     H8Y      HAL2     0.900000E-01   1.00800           0
      5816 MEMB     44       POPC     C39      CTL2    -0.180000       12.0110           0
      5817 MEMB     44       POPC     H9X      HAL2     0.900000E-01   1.00800           0
      5818 MEMB     44       POPC     H9Y      HAL2     0.900000E-01   1.00800           0
      5819 MEMB     44       POPC     C310     CTL2    -0.180000       12.0110           0
      5820 MEMB     44       POPC     H10X     HAL2     0.900000E-01   1.00800           0
      5821 MEMB     44       POPC     H10Y     HAL2     0.900000E-01   1.00800           0
      5822 MEMB     44       POPC     C311     CTL2    -0.180000       12.0110           0
      5823 MEMB     44       POPC     H11X     HAL2     0.900000E-01   1.00800           0
      5824 MEMB     44       POPC     H11Y     HAL2     0.900000E-01   1.00800           0
      5825 MEMB     44       POPC     C312     CTL2    -0.180000       12.0110           0
      5826 MEMB     44       POPC     H12X     HAL2     0.900000E-01   1.00800           0
      5827 MEMB     44       POPC     H12Y     HAL2     0.900000E-01   1.00800           0
      5828 MEMB     44       POPC     C313     CTL2    -0.180000       12.0110           0
      5829 MEMB     44       POPC     H13X     HAL2     0.900000E-01   1.00800           0
      5830 MEMB     44       POPC     H13Y     HAL2     0.900000E-01   1.00800           0
      5831 MEMB     44       POPC     C314     CTL2    -0.180000       12.0110           0
      5832 MEMB     44       POPC     H14X     HAL2     0.900000E-01   1.00800           0
      5833 MEMB     44       POPC     H14Y     HAL2     0.900000E-01   1.00800           0
      5834 MEMB     44       POPC     C315     CTL2    -0.180000       12.0110           0
      5835 MEMB     44       POPC     H15X     HAL2     0.900000E-01   1.00800           0
      5836 MEMB     44       POPC     H15Y     HAL2     0.900000E-01   1.00800           0
      5837 MEMB     44       POPC     C316     CTL3    -0.270000       12.0110           0
      5838 MEMB     44       POPC     H16X     HAL3     0.900000E-01   1.00800           0
      5839 MEMB     44       POPC     H16Y     HAL3     0.900000E-01   1.00800           0
      5840 MEMB     44       POPC     H16Z     HAL3     0.900000E-01   1.00800           0
      5841 MEMB     45       POPC     N        NTL     -0.600000       14.0070           0
      5842 MEMB     45       POPC     C12      CTL2    -0.100000       12.0110           0
      5843 MEMB     45       POPC     H12A     HL       0.250000       1.00800           0
      5844 MEMB     45       POPC     H12B     HL       0.250000       1.00800           0
      5845 MEMB     45       POPC     C13      CTL5    -0.350000       12.0110           0
      5846 MEMB     45       POPC     H13A     HL       0.250000       1.00800           0
      5847 MEMB     45       POPC     H13B     HL       0.250000       1.00800           0
      5848 MEMB     45       POPC     H13C     HL       0.250000       1.00800           0
      5849 MEMB     45       POPC     C14      CTL5    -0.350000       12.0110           0
      5850 MEMB     45       POPC     H14A     HL       0.250000       1.00800           0
      5851 MEMB     45       POPC     H14B     HL       0.250000       1.00800           0
      5852 MEMB     45       POPC     H14C     HL       0.250000       1.00800           0
      5853 MEMB     45       POPC     C15      CTL5    -0.350000       12.0110           0
      5854 MEMB     45       POPC     H15A     HL       0.250000       1.00800           0
      5855 MEMB     45       POPC     H15B     HL       0.250000       1.00800           0
      5856 MEMB     45       POPC     H15C     HL       0.250000       1.00800           0
      5857 MEMB     45       POPC     C11      CTL2    -0.800000E-01   12.0110           0
      5858 MEMB     45       POPC     H11A     HAL2     0.900000E-01   1.00800           0
      5859 MEMB     45       POPC     H11B     HAL2     0.900000E-01   1.00800           0
      5860 MEMB     45       POPC     P        PL        1.50000       30.9740           0
      5861 MEMB     45       POPC     O13      O2L     -0.780000       15.9994           0
      5862 MEMB     45       POPC     O14      O2L     -0.780000       15.9994           0
      5863 MEMB     45       POPC     O12      OSLP    -0.570000       15.9994           0
      5864 MEMB     45       POPC     O11      OSLP    -0.570000       15.9994           0
      5865 MEMB     45       POPC     C1       CTL2    -0.800000E-01   12.0110           0
      5866 MEMB     45       POPC     HA       HAL2     0.900000E-01   1.00800           0
      5867 MEMB     45       POPC     HB       HAL2     0.900000E-01   1.00800           0
      5868 MEMB     45       POPC     C2       CTL1     0.170000       12.0110           0
      5869 MEMB     45       POPC     HS       HAL1     0.900000E-01   1.00800           0
      5870 MEMB     45       POPC     O21      OSL     -0.490000       15.9994           0
      5871 MEMB     45       POPC     C21      CL       0.900000       12.0110           0
      5872 MEMB     45       POPC     O22      OBL     -0.630000       15.9994           0
      5873 MEMB     45       POPC     C22      CTL2    -0.220000       12.0110           0
      5874 MEMB     45       POPC     H2R      HAL2     0.900000E-01   1.00800           0
      5875 MEMB     45       POPC     H2S      HAL2     0.900000E-01   1.00800           0
      5876 MEMB     45       POPC     C3       CTL2     0.800000E-01   12.0110           0
      5877 MEMB     45       POPC     HX       HAL2     0.900000E-01   1.00800           0
      5878 MEMB     45       POPC     HY       HAL2     0.900000E-01   1.00800           0
      5879 MEMB     45       POPC     O31      OSL     -0.490000       15.9994           0
      5880 MEMB     45       POPC     C31      CL       0.900000       12.0110           0
      5881 MEMB     45       POPC     O32      OBL     -0.630000       15.9994           0
      5882 MEMB     45       POPC     C32      CTL2    -0.220000       12.0110           0
      5883 MEMB     45       POPC     H2X      HAL2     0.900000E-01   1.00800           0
      5884 MEMB     45       POPC     H2Y      HAL2     0.900000E-01   1.00800           0
      5885 MEMB     45       POPC     C23      CTL2    -0.180000       12.0110           0
      5886 MEMB     45       POPC     H3R      HAL2     0.900000E-01   1.00800           0
      5887 MEMB     45       POPC     H3S      HAL2     0.900000E-01   1.00800           0
      5888 MEMB     45       POPC     C24      CTL2    -0.180000       12.0110           0
      5889 MEMB     45       POPC     H4R      HAL2     0.900000E-01   1.00800           0
      5890 MEMB     45       POPC     H4S      HAL2     0.900000E-01   1.00800           0
      5891 MEMB     45       POPC     C25      CTL2    -0.180000       12.0110           0
      5892 MEMB     45       POPC     H5R      HAL2     0.900000E-01   1.00800           0
      5893 MEMB     45       POPC     H5S      HAL2     0.900000E-01   1.00800           0
      5894 MEMB     45       POPC     C26      CTL2    -0.180000       12.0110           0
      5895 MEMB     45       POPC     H6R      HAL2     0.900000E-01   1.00800           0
      5896 MEMB     45       POPC     H6S      HAL2     0.900000E-01   1.00800           0
      5897 MEMB     45       POPC     C27      CTL2    -0.180000       12.0110           0
      5898 MEMB     45       POPC     H7R      HAL2     0.900000E-01   1.00800           0
      5899 MEMB     45       POPC     H7S      HAL2     0.900000E-01   1.00800           0
      5900 MEMB     45       POPC     C28      CTL2    -0.180000       12.0110           0
      5901 MEMB     45       POPC     H8R      HAL2     0.900000E-01   1.00800           0
      5902 MEMB     45       POPC     H8S      HAL2     0.900000E-01   1.00800           0
      5903 MEMB     45       POPC     C29      CEL1    -0.150000       12.0110           0
      5904 MEMB     45       POPC     H91      HEL1     0.150000       1.00800           0
      5905 MEMB     45       POPC     C210     CEL1    -0.150000       12.0110           0
      5906 MEMB     45       POPC     H101     HEL1     0.150000       1.00800           0
      5907 MEMB     45       POPC     C211     CTL2    -0.180000       12.0110           0
      5908 MEMB     45       POPC     H11R     HAL2     0.900000E-01   1.00800           0
      5909 MEMB     45       POPC     H11S     HAL2     0.900000E-01   1.00800           0
      5910 MEMB     45       POPC     C212     CTL2    -0.180000       12.0110           0
      5911 MEMB     45       POPC     H12R     HAL2     0.900000E-01   1.00800           0
      5912 MEMB     45       POPC     H12S     HAL2     0.900000E-01   1.00800           0
      5913 MEMB     45       POPC     C213     CTL2    -0.180000       12.0110           0
      5914 MEMB     45       POPC     H13R     HAL2     0.900000E-01   1.00800           0
      5915 MEMB     45       POPC     H13S     HAL2     0.900000E-01   1.00800           0
      5916 MEMB     45       POPC     C214     CTL2    -0.180000       12.0110           0
      5917 MEMB     45       POPC     H14R     HAL2     0.900000E-01   1.00800           0
      5918 MEMB     45       POPC     H14S     HAL2     0.900000E-01   1.00800           0
      5919 MEMB     45       POPC     C215     CTL2    -0.180000       12.0110           0
      5920 MEMB     45       POPC     H15R     HAL2     0.900000E-01   1.00800           0
      5921 MEMB     45       POPC     H15S     HAL2     0.900000E-01   1.00800           0
      5922 MEMB     45       POPC     C216     CTL2    -0.180000       12.0110           0
      5923 MEMB     45       POPC     H16R     HAL2     0.900000E-01   1.00800           0
      5924 MEMB     45       POPC     H16S     HAL2     0.900000E-01   1.00800           0
      5925 MEMB     45       POPC     C217     CTL2    -0.180000       12.0110           0
      5926 MEMB     45       POPC     H17R     HAL2     0.900000E-01   1.00800           0
      5927 MEMB     45       POPC     H17S     HAL2     0.900000E-01   1.00800           0
      5928 MEMB     45       POPC     C218     CTL3    -0.270000       12.0110           0
      5929 MEMB     45       POPC     H18R     HAL3     0.900000E-01   1.00800           0
      5930 MEMB     45       POPC     H18S     HAL3     0.900000E-01   1.00800           0
      5931 MEMB     45       POPC     H18T     HAL3     0.900000E-01   1.00800           0
      5932 MEMB     45       POPC     C33      CTL2    -0.180000       12.0110           0
      5933 MEMB     45       POPC     H3X      HAL2     0.900000E-01   1.00800           0
      5934 MEMB     45       POPC     H3Y      HAL2     0.900000E-01   1.00800           0
      5935 MEMB     45       POPC     C34      CTL2    -0.180000       12.0110           0
      5936 MEMB     45       POPC     H4X      HAL2     0.900000E-01   1.00800           0
      5937 MEMB     45       POPC     H4Y      HAL2     0.900000E-01   1.00800           0
      5938 MEMB     45       POPC     C35      CTL2    -0.180000       12.0110           0
      5939 MEMB     45       POPC     H5X      HAL2     0.900000E-01   1.00800           0
      5940 MEMB     45       POPC     H5Y      HAL2     0.900000E-01   1.00800           0
      5941 MEMB     45       POPC     C36      CTL2    -0.180000       12.0110           0
      5942 MEMB     45       POPC     H6X      HAL2     0.900000E-01   1.00800           0
      5943 MEMB     45       POPC     H6Y      HAL2     0.900000E-01   1.00800           0
      5944 MEMB     45       POPC     C37      CTL2    -0.180000       12.0110           0
      5945 MEMB     45       POPC     H7X      HAL2     0.900000E-01   1.00800           0
      5946 MEMB     45       POPC     H7Y      HAL2     0.900000E-01   1.00800           0
      5947 MEMB     45       POPC     C38      CTL2    -0.180000       12.0110           0
      5948 MEMB     45       POPC     H8X      HAL2     0.900000E-01   1.00800           0
      5949 MEMB     45       POPC     H8Y      HAL2     0.900000E-01   1.00800           0
      5950 MEMB     45       POPC     C39      CTL2    -0.180000       12.0110           0
      5951 MEMB     45       POPC     H9X      HAL2     0.900000E-01   1.00800           0
      5952 MEMB     45       POPC     H9Y      HAL2     0.900000E-01   1.00800           0
      5953 MEMB     45       POPC     C310     CTL2    -0.180000       12.0110           0
      5954 MEMB     45       POPC     H10X     HAL2     0.900000E-01   1.00800           0
      5955 MEMB     45       POPC     H10Y     HAL2     0.900000E-01   1.00800           0
      5956 MEMB     45       POPC     C311     CTL2    -0.180000       12.0110           0
      5957 MEMB     45       POPC     H11X     HAL2     0.900000E-01   1.00800           0
      5958 MEMB     45       POPC     H11Y     HAL2     0.900000E-01   1.00800           0
      5959 MEMB     45       POPC     C312     CTL2    -0.180000       12.0110           0
      5960 MEMB     45       POPC     H12X     HAL2     0.900000E-01   1.00800           0
      5961 MEMB     45       POPC     H12Y     HAL2     0.900000E-01   1.00800           0
      5962 MEMB     45       POPC     C313     CTL2    -0.180000       12.0110           0
      5963 MEMB     45       POPC     H13X     HAL2     0.900000E-01   1.00800           0
      5964 MEMB     45       POPC     H13Y     HAL2     0.900000E-01   1.00800           0
      5965 MEMB     45       POPC     C314     CTL2    -0.180000       12.0110           0
      5966 MEMB     45       POPC     H14X     HAL2     0.900000E-01   1.00800           0
      5967 MEMB     45       POPC     H14Y     HAL2     0.900000E-01   1.00800           0
      5968 MEMB     45       POPC     C315     CTL2    -0.180000       12.0110           0
      5969 MEMB     45       POPC     H15X     HAL2     0.900000E-01   1.00800           0
      5970 MEMB     45       POPC     H15Y     HAL2     0.900000E-01   1.00800           0
      5971 MEMB     45       POPC     C316     CTL3    -0.270000       12.0110           0
      5972 MEMB     45       POPC     H16X     HAL3     0.900000E-01   1.00800           0
      5973 MEMB     45       POPC     H16Y     HAL3     0.900000E-01   1.00800           0
      5974 MEMB     45       POPC     H16Z     HAL3     0.900000E-01   1.00800           0
      5975 MEMB     46       POPC     N        NTL     -0.600000       14.0070           0
      5976 MEMB     46       POPC     C12      CTL2    -0.100000       12.0110           0
      5977 MEMB     46       POPC     H12A     HL       0.250000       1.00800           0
      5978 MEMB     46       POPC     H12B     HL       0.250000       1.00800           0
      5979 MEMB     46       POPC     C13      CTL5    -0.350000       12.0110           0
      5980 MEMB     46       POPC     H13A     HL       0.250000       1.00800           0
      5981 MEMB     46       POPC     H13B     HL       0.250000       1.00800           0
      5982 MEMB     46       POPC     H13C     HL       0.250000       1.00800           0
      5983 MEMB     46       POPC     C14      CTL5    -0.350000       12.0110           0
      5984 MEMB     46       POPC     H14A     HL       0.250000       1.00800           0
      5985 MEMB     46       POPC     H14B     HL       0.250000       1.00800           0
      5986 MEMB     46       POPC     H14C     HL       0.250000       1.00800           0
      5987 MEMB     46       POPC     C15      CTL5    -0.350000       12.0110           0
      5988 MEMB     46       POPC     H15A     HL       0.250000       1.00800           0
      5989 MEMB     46       POPC     H15B     HL       0.250000       1.00800           0
      5990 MEMB     46       POPC     H15C     HL       0.250000       1.00800           0
      5991 MEMB     46       POPC     C11      CTL2    -0.800000E-01   12.0110           0
      5992 MEMB     46       POPC     H11A     HAL2     0.900000E-01   1.00800           0
      5993 MEMB     46       POPC     H11B     HAL2     0.900000E-01   1.00800           0
      5994 MEMB     46       POPC     P        PL        1.50000       30.9740           0
      5995 MEMB     46       POPC     O13      O2L     -0.780000       15.9994           0
      5996 MEMB     46       POPC     O14      O2L     -0.780000       15.9994           0
      5997 MEMB     46       POPC     O12      OSLP    -0.570000       15.9994           0
      5998 MEMB     46       POPC     O11      OSLP    -0.570000       15.9994           0
      5999 MEMB     46       POPC     C1       CTL2    -0.800000E-01   12.0110           0
      6000 MEMB     46       POPC     HA       HAL2     0.900000E-01   1.00800           0
      6001 MEMB     46       POPC     HB       HAL2     0.900000E-01   1.00800           0
      6002 MEMB     46       POPC     C2       CTL1     0.170000       12.0110           0
      6003 MEMB     46       POPC     HS       HAL1     0.900000E-01   1.00800           0
      6004 MEMB     46       POPC     O21      OSL     -0.490000       15.9994           0
      6005 MEMB     46       POPC     C21      CL       0.900000       12.0110           0
      6006 MEMB     46       POPC     O22      OBL     -0.630000       15.9994           0
      6007 MEMB     46       POPC     C22      CTL2    -0.220000       12.0110           0
      6008 MEMB     46       POPC     H2R      HAL2     0.900000E-01   1.00800           0
      6009 MEMB     46       POPC     H2S      HAL2     0.900000E-01   1.00800           0
      6010 MEMB     46       POPC     C3       CTL2     0.800000E-01   12.0110           0
      6011 MEMB     46       POPC     HX       HAL2     0.900000E-01   1.00800           0
      6012 MEMB     46       POPC     HY       HAL2     0.900000E-01   1.00800           0
      6013 MEMB     46       POPC     O31      OSL     -0.490000       15.9994           0
      6014 MEMB     46       POPC     C31      CL       0.900000       12.0110           0
      6015 MEMB     46       POPC     O32      OBL     -0.630000       15.9994           0
      6016 MEMB     46       POPC     C32      CTL2    -0.220000       12.0110           0
      6017 MEMB     46       POPC     H2X      HAL2     0.900000E-01   1.00800           0
      6018 MEMB     46       POPC     H2Y      HAL2     0.900000E-01   1.00800           0
      6019 MEMB     46       POPC     C23      CTL2    -0.180000       12.0110           0
      6020 MEMB     46       POPC     H3R      HAL2     0.900000E-01   1.00800           0
      6021 MEMB     46       POPC     H3S      HAL2     0.900000E-01   1.00800           0
      6022 MEMB     46       POPC     C24      CTL2    -0.180000       12.0110           0
      6023 MEMB     46       POPC     H4R      HAL2     0.900000E-01   1.00800           0
      6024 MEMB     46       POPC     H4S      HAL2     0.900000E-01   1.00800           0
      6025 MEMB     46       POPC     C25      CTL2    -0.180000       12.0110           0
      6026 MEMB     46       POPC     H5R      HAL2     0.900000E-01   1.00800           0
      6027 MEMB     46       POPC     H5S      HAL2     0.900000E-01   1.00800           0
      6028 MEMB     46       POPC     C26      CTL2    -0.180000       12.0110           0
      6029 MEMB     46       POPC     H6R      HAL2     0.900000E-01   1.00800           0
      6030 MEMB     46       POPC     H6S      HAL2     0.900000E-01   1.00800           0
      6031 MEMB     46       POPC     C27      CTL2    -0.180000       12.0110           0
      6032 MEMB     46       POPC     H7R      HAL2     0.900000E-01   1.00800           0
      6033 MEMB     46       POPC     H7S      HAL2     0.900000E-01   1.00800           0
      6034 MEMB     46       POPC     C28      CTL2    -0.180000       12.0110           0
      6035 MEMB     46       POPC     H8R      HAL2     0.900000E-01   1.00800           0
      6036 MEMB     46       POPC     H8S      HAL2     0.900000E-01   1.00800           0
      6037 MEMB     46       POPC     C29      CEL1    -0.150000       12.0110           0
      6038 MEMB     46       POPC     H91      HEL1     0.150000       1.00800           0
      6039 MEMB     46       POPC     C210     CEL1    -0.150000       12.0110           0
      6040 MEMB     46       POPC     H101     HEL1     0.150000       1.00800           0
      6041 MEMB     46       POPC     C211     CTL2    -0.180000       12.0110           0
      6042 MEMB     46       POPC     H11R     HAL2     0.900000E-01   1.00800           0
      6043 MEMB     46       POPC     H11S     HAL2     0.900000E-01   1.00800           0
      6044 MEMB     46       POPC     C212     CTL2    -0.180000       12.0110           0
      6045 MEMB     46       POPC     H12R     HAL2     0.900000E-01   1.00800           0
      6046 MEMB     46       POPC     H12S     HAL2     0.900000E-01   1.00800           0
      6047 MEMB     46       POPC     C213     CTL2    -0.180000       12.0110           0
      6048 MEMB     46       POPC     H13R     HAL2     0.900000E-01   1.00800           0
      6049 MEMB     46       POPC     H13S     HAL2     0.900000E-01   1.00800           0
      6050 MEMB     46       POPC     C214     CTL2    -0.180000       12.0110           0
      6051 MEMB     46       POPC     H14R     HAL2     0.900000E-01   1.00800           0
      6052 MEMB     46       POPC     H14S     HAL2     0.900000E-01   1.00800           0
      6053 MEMB     46       POPC     C215     CTL2    -0.180000       12.0110           0
      6054 MEMB     46       POPC     H15R     HAL2     0.900000E-01   1.00800           0
      6055 MEMB     46       POPC     H15S     HAL2     0.900000E-01   1.00800           0
      6056 MEMB     46       POPC     C216     CTL2    -0.180000       12.0110           0
      6057 MEMB     46       POPC     H16R     HAL2     0.900000E-01   1.00800           0
      6058 MEMB     46       POPC     H16S     HAL2     0.900000E-01   1.00800           0
      6059 MEMB     46       POPC     C217     CTL2    -0.180000       12.0110           0
      6060 MEMB     46       POPC     H17R     HAL2     0.900000E-01   1.00800           0
      6061 MEMB     46       POPC     H17S     HAL2     0.900000E-01   1.00800           0
      6062 MEMB     46       POPC     C218     CTL3    -0.270000       12.0110           0
      6063 MEMB     46       POPC     H18R     HAL3     0.900000E-01   1.00800           0
      6064 MEMB     46       POPC     H18S     HAL3     0.900000E-01   1.00800           0
      6065 MEMB     46       POPC     H18T     HAL3     0.900000E-01   1.00800           0
      6066 MEMB     46       POPC     C33      CTL2    -0.180000       12.0110           0
      6067 MEMB     46       POPC     H3X      HAL2     0.900000E-01   1.00800           0
      6068 MEMB     46       POPC     H3Y      HAL2     0.900000E-01   1.00800           0
      6069 MEMB     46       POPC     C34      CTL2    -0.180000       12.0110           0
      6070 MEMB     46       POPC     H4X      HAL2     0.900000E-01   1.00800           0
      6071 MEMB     46       POPC     H4Y      HAL2     0.900000E-01   1.00800           0
      6072 MEMB     46       POPC     C35      CTL2    -0.180000       12.0110           0
      6073 MEMB     46       POPC     H5X      HAL2     0.900000E-01   1.00800           0
      6074 MEMB     46       POPC     H5Y      HAL2     0.900000E-01   1.00800           0
      6075 MEMB     46       POPC     C36      CTL2    -0.180000       12.0110           0
      6076 MEMB     46       POPC     H6X      HAL2     0.900000E-01   1.00800           0
      6077 MEMB     46       POPC     H6Y      HAL2     0.900000E-01   1.00800           0
      6078 MEMB     46       POPC     C37      CTL2    -0.180000       12.0110           0
      6079 MEMB     46       POPC     H7X      HAL2     0.900000E-01   1.00800           0
      6080 MEMB     46       POPC     H7Y      HAL2     0.900000E-01   1.00800           0
      6081 MEMB     46       POPC     C38      CTL2    -0.180000       12.0110           0
      6082 MEMB     46       POPC     H8X      HAL2     0.900000E-01   1.00800           0
      6083 MEMB     46       POPC     H8Y      HAL2     0.900000E-01   1.00800           0
      6084 MEMB     46       POPC     C39      CTL2    -0.180000       12.0110           0
      6085 MEMB     46       POPC     H9X      HAL2     0.900000E-01   1.00800           0
      6086 MEMB     46       POPC     H9Y      HAL2     0.900000E-01   1.00800           0
      6087 MEMB     46       POPC     C310     CTL2    -0.180000       12.0110           0
      6088 MEMB     46       POPC     H10X     HAL2     0.900000E-01   1.00800           0
      6089 MEMB     46       POPC     H10Y     HAL2     0.900000E-01   1.00800           0
      6090 MEMB     46       POPC     C311     CTL2    -0.180000       12.0110           0
      6091 MEMB     46       POPC     H11X     HAL2     0.900000E-01   1.00800           0
      6092 MEMB     46       POPC     H11Y     HAL2     0.900000E-01   1.00800           0
      6093 MEMB     46       POPC     C312     CTL2    -0.180000       12.0110           0
      6094 MEMB     46       POPC     H12X     HAL2     0.900000E-01   1.00800           0
      6095 MEMB     46       POPC     H12Y     HAL2     0.900000E-01   1.00800           0
      6096 MEMB     46       POPC     C313     CTL2    -0.180000       12.0110           0
      6097 MEMB     46       POPC     H13X     HAL2     0.900000E-01   1.00800           0
      6098 MEMB     46       POPC     H13Y     HAL2     0.900000E-01   1.00800           0
      6099 MEMB     46       POPC     C314     CTL2    -0.180000       12.0110           0
      6100 MEMB     46       POPC     H14X     HAL2     0.900000E-01   1.00800           0
      6101 MEMB     46       POPC     H14Y     HAL2     0.900000E-01   1.00800           0
      6102 MEMB     46       POPC     C315     CTL2    -0.180000       12.0110           0
      6103 MEMB     46       POPC     H15X     HAL2     0.900000E-01   1.00800           0
      6104 MEMB     46       POPC     H15Y     HAL2     0.900000E-01   1.00800           0
      6105 MEMB     46       POPC     C316     CTL3    -0.270000       12.0110           0
      6106 MEMB     46       POPC     H16X     HAL3     0.900000E-01   1.00800           0
      6107 MEMB     46       POPC     H16Y     HAL3     0.900000E-01   1.00800           0
      6108 MEMB     46       POPC     H16Z     HAL3     0.900000E-01   1.00800           0
      6109 MEMB     47       POPS     N        NH3L    -0.300000       14.0070           0
      6110 MEMB     47       POPS     HN1      HCL      0.330000       1.00800           0
      6111 MEMB     47       POPS     HN2      HCL      0.330000       1.00800           0
      6112 MEMB     47       POPS     HN3      HCL      0.330000       1.00800           0
      6113 MEMB     47       POPS     C12      CTL1     0.210000       12.0110           0
      6114 MEMB     47       POPS     H12A     HBL      0.100000       1.00800           0
      6115 MEMB     47       POPS     C13      CCL      0.340000       12.0110           0
      6116 MEMB     47       POPS     O13A     OCL     -0.670000       15.9994           0
      6117 MEMB     47       POPS     O13B     OCL     -0.670000       15.9994           0
      6118 MEMB     47       POPS     C11      CTL2    -0.800000E-01   12.0110           0
      6119 MEMB     47       POPS     H11A     HAL2     0.900000E-01   1.00800           0
      6120 MEMB     47       POPS     H11B     HAL2     0.900000E-01   1.00800           0
      6121 MEMB     47       POPS     P        PL        1.50000       30.9740           0
      6122 MEMB     47       POPS     O13      O2L     -0.780000       15.9994           0
      6123 MEMB     47       POPS     O14      O2L     -0.780000       15.9994           0
      6124 MEMB     47       POPS     O12      OSLP    -0.570000       15.9994           0
      6125 MEMB     47       POPS     O11      OSLP    -0.570000       15.9994           0
      6126 MEMB     47       POPS     C1       CTL2    -0.800000E-01   12.0110           0
      6127 MEMB     47       POPS     HA       HAL2     0.900000E-01   1.00800           0
      6128 MEMB     47       POPS     HB       HAL2     0.900000E-01   1.00800           0
      6129 MEMB     47       POPS     C2       CTL1     0.170000       12.0110           0
      6130 MEMB     47       POPS     HS       HAL1     0.900000E-01   1.00800           0
      6131 MEMB     47       POPS     O21      OSL     -0.490000       15.9994           0
      6132 MEMB     47       POPS     C21      CL       0.900000       12.0110           0
      6133 MEMB     47       POPS     O22      OBL     -0.630000       15.9994           0
      6134 MEMB     47       POPS     C22      CTL2    -0.220000       12.0110           0
      6135 MEMB     47       POPS     H2R      HAL2     0.900000E-01   1.00800           0
      6136 MEMB     47       POPS     H2S      HAL2     0.900000E-01   1.00800           0
      6137 MEMB     47       POPS     C3       CTL2     0.800000E-01   12.0110           0
      6138 MEMB     47       POPS     HX       HAL2     0.900000E-01   1.00800           0
      6139 MEMB     47       POPS     HY       HAL2     0.900000E-01   1.00800           0
      6140 MEMB     47       POPS     O31      OSL     -0.490000       15.9994           0
      6141 MEMB     47       POPS     C31      CL       0.900000       12.0110           0
      6142 MEMB     47       POPS     O32      OBL     -0.630000       15.9994           0
      6143 MEMB     47       POPS     C32      CTL2    -0.220000       12.0110           0
      6144 MEMB     47       POPS     H2X      HAL2     0.900000E-01   1.00800           0
      6145 MEMB     47       POPS     H2Y      HAL2     0.900000E-01   1.00800           0
      6146 MEMB     47       POPS     C23      CTL2    -0.180000       12.0110           0
      6147 MEMB     47       POPS     H3R      HAL2     0.900000E-01   1.00800           0
      6148 MEMB     47       POPS     H3S      HAL2     0.900000E-01   1.00800           0
      6149 MEMB     47       POPS     C24      CTL2    -0.180000       12.0110           0
      6150 MEMB     47       POPS     H4R      HAL2     0.900000E-01   1.00800           0
      6151 MEMB     47       POPS     H4S      HAL2     0.900000E-01   1.00800           0
      6152 MEMB     47       POPS     C25      CTL2    -0.180000       12.0110           0
      6153 MEMB     47       POPS     H5R      HAL2     0.900000E-01   1.00800           0
      6154 MEMB     47       POPS     H5S      HAL2     0.900000E-01   1.00800           0
      6155 MEMB     47       POPS     C26      CTL2    -0.180000       12.0110           0
      6156 MEMB     47       POPS     H6R      HAL2     0.900000E-01   1.00800           0
      6157 MEMB     47       POPS     H6S      HAL2     0.900000E-01   1.00800           0
      6158 MEMB     47       POPS     C27      CTL2    -0.180000       12.0110           0
      6159 MEMB     47       POPS     H7R      HAL2     0.900000E-01   1.00800           0
      6160 MEMB     47       POPS     H7S      HAL2     0.900000E-01   1.00800           0
      6161 MEMB     47       POPS     C28      CTL2    -0.180000       12.0110           0
      6162 MEMB     47       POPS     H8R      HAL2     0.900000E-01   1.00800           0
      6163 MEMB     47       POPS     H8S      HAL2     0.900000E-01   1.00800           0
      6164 MEMB     47       POPS     C29      CEL1    -0.150000       12.0110           0
      6165 MEMB     47       POPS     H91      HEL1     0.150000       1.00800           0
      6166 MEMB     47       POPS     C210     CEL1    -0.150000       12.0110           0
      6167 MEMB     47       POPS     H101     HEL1     0.150000       1.00800           0
      6168 MEMB     47       POPS     C211     CTL2    -0.180000       12.0110           0
      6169 MEMB     47       POPS     H11R     HAL2     0.900000E-01   1.00800           0
      6170 MEMB     47       POPS     H11S     HAL2     0.900000E-01   1.00800           0
      6171 MEMB     47       POPS     C212     CTL2    -0.180000       12.0110           0
      6172 MEMB     47       POPS     H12R     HAL2     0.900000E-01   1.00800           0
      6173 MEMB     47       POPS     H12S     HAL2     0.900000E-01   1.00800           0
      6174 MEMB     47       POPS     C213     CTL2    -0.180000       12.0110           0
      6175 MEMB     47       POPS     H13R     HAL2     0.900000E-01   1.00800           0
      6176 MEMB     47       POPS     H13S     HAL2     0.900000E-01   1.00800           0
      6177 MEMB     47       POPS     C214     CTL2    -0.180000       12.0110           0
      6178 MEMB     47       POPS     H14R     HAL2     0.900000E-01   1.00800           0
      6179 MEMB     47       POPS     H14S     HAL2     0.900000E-01   1.00800           0
      6180 MEMB     47       POPS     C215     CTL2    -0.180000       12.0110           0
      6181 MEMB     47       POPS     H15R     HAL2     0.900000E-01   1.00800           0
      6182 MEMB     47       POPS     H15S     HAL2     0.900000E-01   1.00800           0
      6183 MEMB     47       POPS     C216     CTL2    -0.180000       12.0110           0
      6184 MEMB     47       POPS     H16R     HAL2     0.900000E-01   1.00800           0
      6185 MEMB     47       POPS     H16S     HAL2     0.900000E-01   1.00800           0
      6186 MEMB     47       POPS     C217     CTL2    -0.180000       12.0110           0
      6187 MEMB     47       POPS     H17R     HAL2     0.900000E-01   1.00800           0
      6188 MEMB     47       POPS     H17S     HAL2     0.900000E-01   1.00800           0
      6189 MEMB     47       POPS     C218     CTL3    -0.270000       12.0110           0
      6190 MEMB     47       POPS     H18R     HAL3     0.900000E-01   1.00800           0
      6191 MEMB     47       POPS     H18S     HAL3     0.900000E-01   1.00800           0
      6192 MEMB     47       POPS     H18T     HAL3     0.900000E-01   1.00800           0
      6193 MEMB     47       POPS     C33      CTL2    -0.180000       12.0110           0
      6194 MEMB     47       POPS     H3X      HAL2     0.900000E-01   1.00800           0
      6195 MEMB     47       POPS     H3Y      HAL2     0.900000E-01   1.00800           0
      6196 MEMB     47       POPS     C34      CTL2    -0.180000       12.0110           0
      6197 MEMB     47       POPS     H4X      HAL2     0.900000E-01   1.00800           0
      6198 MEMB     47       POPS     H4Y      HAL2     0.900000E-01   1.00800           0
      6199 MEMB     47       POPS     C35      CTL2    -0.180000       12.0110           0
      6200 MEMB     47       POPS     H5X      HAL2     0.900000E-01   1.00800           0
      6201 MEMB     47       POPS     H5Y      HAL2     0.900000E-01   1.00800           0
      6202 MEMB     47       POPS     C36      CTL2    -0.180000       12.0110           0
      6203 MEMB     47       POPS     H6X      HAL2     0.900000E-01   1.00800           0
      6204 MEMB     47       POPS     H6Y      HAL2     0.900000E-01   1.00800           0
      6205 MEMB     47       POPS     C37      CTL2    -0.180000       12.0110           0
      6206 MEMB     47       POPS     H7X      HAL2     0.900000E-01   1.00800           0
      6207 MEMB     47       POPS     H7Y      HAL2     0.900000E-01   1.00800           0
      6208 MEMB     47       POPS     C38      CTL2    -0.180000       12.0110           0
      6209 MEMB     47       POPS     H8X      HAL2     0.900000E-01   1.00800           0
      6210 MEMB     47       POPS     H8Y      HAL2     0.900000E-01   1.00800           0
      6211 MEMB     47       POPS     C39      CTL2    -0.180000       12.0110           0
      6212 MEMB     47       POPS     H9X      HAL2     0.900000E-01   1.00800           0
      6213 MEMB     47       POPS     H9Y      HAL2     0.900000E-01   1.00800           0
      6214 MEMB     47       POPS     C310     CTL2    -0.180000       12.0110           0
      6215 MEMB     47       POPS     H10X     HAL2     0.900000E-01   1.00800           0
      6216 MEMB     47       POPS     H10Y     HAL2     0.900000E-01   1.00800           0
      6217 MEMB     47       POPS     C311     CTL2    -0.180000       12.0110           0
      6218 MEMB     47       POPS     H11X     HAL2     0.900000E-01   1.00800           0
      6219 MEMB     47       POPS     H11Y     HAL2     0.900000E-01   1.00800           0
      6220 MEMB     47       POPS     C312     CTL2    -0.180000       12.0110           0
      6221 MEMB     47       POPS     H12X     HAL2     0.900000E-01   1.00800           0
      6222 MEMB     47       POPS     H12Y     HAL2     0.900000E-01   1.00800           0
      6223 MEMB     47       POPS     C313     CTL2    -0.180000       12.0110           0
      6224 MEMB     47       POPS     H13X     HAL2     0.900000E-01   1.00800           0
      6225 MEMB     47       POPS     H13Y     HAL2     0.900000E-01   1.00800           0
      6226 MEMB     47       POPS     C314     CTL2    -0.180000       12.0110           0
      6227 MEMB     47       POPS     H14X     HAL2     0.900000E-01   1.00800           0
      6228 MEMB     47       POPS     H14Y     HAL2     0.900000E-01   1.00800           0
      6229 MEMB     47       POPS     C315     CTL2    -0.180000       12.0110           0
      6230 MEMB     47       POPS     H15X     HAL2     0.900000E-01   1.00800           0
      6231 MEMB     47       POPS     H15Y     HAL2     0.900000E-01   1.00800           0
      6232 MEMB     47       POPS     C316     CTL3    -0.270000       12.0110           0
      6233 MEMB     47       POPS     H16X     HAL3     0.900000E-01   1.00800           0
      6234 MEMB     47       POPS     H16Y     HAL3     0.900000E-01   1.00800           0
      6235 MEMB     47       POPS     H16Z     HAL3     0.900000E-01   1.00800           0
      6236 MEMB     48       POPC     N        NTL     -0.600000       14.0070           0
      6237 MEMB     48       POPC     C12      CTL2    -0.100000       12.0110           0
      6238 MEMB     48       POPC     H12A     HL       0.250000       1.00800           0
      6239 MEMB     48       POPC     H12B     HL       0.250000       1.00800           0
      6240 MEMB     48       POPC     C13      CTL5    -0.350000       12.0110           0
      6241 MEMB     48       POPC     H13A     HL       0.250000       1.00800           0
      6242 MEMB     48       POPC     H13B     HL       0.250000       1.00800           0
      6243 MEMB     48       POPC     H13C     HL       0.250000       1.00800           0
      6244 MEMB     48       POPC     C14      CTL5    -0.350000       12.0110           0
      6245 MEMB     48       POPC     H14A     HL       0.250000       1.00800           0
      6246 MEMB     48       POPC     H14B     HL       0.250000       1.00800           0
      6247 MEMB     48       POPC     H14C     HL       0.250000       1.00800           0
      6248 MEMB     48       POPC     C15      CTL5    -0.350000       12.0110           0
      6249 MEMB     48       POPC     H15A     HL       0.250000       1.00800           0
      6250 MEMB     48       POPC     H15B     HL       0.250000       1.00800           0
      6251 MEMB     48       POPC     H15C     HL       0.250000       1.00800           0
      6252 MEMB     48       POPC     C11      CTL2    -0.800000E-01   12.0110           0
      6253 MEMB     48       POPC     H11A     HAL2     0.900000E-01   1.00800           0
      6254 MEMB     48       POPC     H11B     HAL2     0.900000E-01   1.00800           0
      6255 MEMB     48       POPC     P        PL        1.50000       30.9740           0
      6256 MEMB     48       POPC     O13      O2L     -0.780000       15.9994           0
      6257 MEMB     48       POPC     O14      O2L     -0.780000       15.9994           0
      6258 MEMB     48       POPC     O12      OSLP    -0.570000       15.9994           0
      6259 MEMB     48       POPC     O11      OSLP    -0.570000       15.9994           0
      6260 MEMB     48       POPC     C1       CTL2    -0.800000E-01   12.0110           0
      6261 MEMB     48       POPC     HA       HAL2     0.900000E-01   1.00800           0
      6262 MEMB     48       POPC     HB       HAL2     0.900000E-01   1.00800           0
      6263 MEMB     48       POPC     C2       CTL1     0.170000       12.0110           0
      6264 MEMB     48       POPC     HS       HAL1     0.900000E-01   1.00800           0
      6265 MEMB     48       POPC     O21      OSL     -0.490000       15.9994           0
      6266 MEMB     48       POPC     C21      CL       0.900000       12.0110           0
      6267 MEMB     48       POPC     O22      OBL     -0.630000       15.9994           0
      6268 MEMB     48       POPC     C22      CTL2    -0.220000       12.0110           0
      6269 MEMB     48       POPC     H2R      HAL2     0.900000E-01   1.00800           0
      6270 MEMB     48       POPC     H2S      HAL2     0.900000E-01   1.00800           0
      6271 MEMB     48       POPC     C3       CTL2     0.800000E-01   12.0110           0
      6272 MEMB     48       POPC     HX       HAL2     0.900000E-01   1.00800           0
      6273 MEMB     48       POPC     HY       HAL2     0.900000E-01   1.00800           0
      6274 MEMB     48       POPC     O31      OSL     -0.490000       15.9994           0
      6275 MEMB     48       POPC     C31      CL       0.900000       12.0110           0
      6276 MEMB     48       POPC     O32      OBL     -0.630000       15.9994           0
      6277 MEMB     48       POPC     C32      CTL2    -0.220000       12.0110           0
      6278 MEMB     48       POPC     H2X      HAL2     0.900000E-01   1.00800           0
      6279 MEMB     48       POPC     H2Y      HAL2     0.900000E-01   1.00800           0
      6280 MEMB     48       POPC     C23      CTL2    -0.180000       12.0110           0
      6281 MEMB     48       POPC     H3R      HAL2     0.900000E-01   1.00800           0
      6282 MEMB     48       POPC     H3S      HAL2     0.900000E-01   1.00800           0
      6283 MEMB     48       POPC     C24      CTL2    -0.180000       12.0110           0
      6284 MEMB     48       POPC     H4R      HAL2     0.900000E-01   1.00800           0
      6285 MEMB     48       POPC     H4S      HAL2     0.900000E-01   1.00800           0
      6286 MEMB     48       POPC     C25      CTL2    -0.180000       12.0110           0
      6287 MEMB     48       POPC     H5R      HAL2     0.900000E-01   1.00800           0
      6288 MEMB     48       POPC     H5S      HAL2     0.900000E-01   1.00800           0
      6289 MEMB     48       POPC     C26      CTL2    -0.180000       12.0110           0
      6290 MEMB     48       POPC     H6R      HAL2     0.900000E-01   1.00800           0
      6291 MEMB     48       POPC     H6S      HAL2     0.900000E-01   1.00800           0
      6292 MEMB     48       POPC     C27      CTL2    -0.180000       12.0110           0
      6293 MEMB     48       POPC     H7R      HAL2     0.900000E-01   1.00800           0
      6294 MEMB     48       POPC     H7S      HAL2     0.900000E-01   1.00800           0
      6295 MEMB     48       POPC     C28      CTL2    -0.180000       12.0110           0
      6296 MEMB     48       POPC     H8R      HAL2     0.900000E-01   1.00800           0
      6297 MEMB     48       POPC     H8S      HAL2     0.900000E-01   1.00800           0
      6298 MEMB     48       POPC     C29      CEL1    -0.150000       12.0110           0
      6299 MEMB     48       POPC     H91      HEL1     0.150000       1.00800           0
      6300 MEMB     48       POPC     C210     CEL1    -0.150000       12.0110           0
      6301 MEMB     48       POPC     H101     HEL1     0.150000       1.00800           0
      6302 MEMB     48       POPC     C211     CTL2    -0.180000       12.0110           0
      6303 MEMB     48       POPC     H11R     HAL2     0.900000E-01   1.00800           0
      6304 MEMB     48       POPC     H11S     HAL2     0.900000E-01   1.00800           0
      6305 MEMB     48       POPC     C212     CTL2    -0.180000       12.0110           0
      6306 MEMB     48       POPC     H12R     HAL2     0.900000E-01   1.00800           0
      6307 MEMB     48       POPC     H12S     HAL2     0.900000E-01   1.00800           0
      6308 MEMB     48       POPC     C213     CTL2    -0.180000       12.0110           0
      6309 MEMB     48       POPC     H13R     HAL2     0.900000E-01   1.00800           0
      6310 MEMB     48       POPC     H13S     HAL2     0.900000E-01   1.00800           0
      6311 MEMB     48       POPC     C214     CTL2    -0.180000       12.0110           0
      6312 MEMB     48       POPC     H14R     HAL2     0.900000E-01   1.00800           0
      6313 MEMB     48       POPC     H14S     HAL2     0.900000E-01   1.00800           0
      6314 MEMB     48       POPC     C215     CTL2    -0.180000       12.0110           0
      6315 MEMB     48       POPC     H15R     HAL2     0.900000E-01   1.00800           0
      6316 MEMB     48       POPC     H15S     HAL2     0.900000E-01   1.00800           0
      6317 MEMB     48       POPC     C216     CTL2    -0.180000       12.0110           0
      6318 MEMB     48       POPC     H16R     HAL2     0.900000E-01   1.00800           0
      6319 MEMB     48       POPC     H16S     HAL2     0.900000E-01   1.00800           0
      6320 MEMB     48       POPC     C217     CTL2    -0.180000       12.0110           0
      6321 MEMB     48       POPC     H17R     HAL2     0.900000E-01   1.00800           0
      6322 MEMB     48       POPC     H17S     HAL2     0.900000E-01   1.00800           0
      6323 MEMB     48       POPC     C218     CTL3    -0.270000       12.0110           0
      6324 MEMB     48       POPC     H18R     HAL3     0.900000E-01   1.00800           0
      6325 MEMB     48       POPC     H18S     HAL3     0.900000E-01   1.00800           0
      6326 MEMB     48       POPC     H18T     HAL3     0.900000E-01   1.00800           0
      6327 MEMB     48       POPC     C33      CTL2    -0.180000       12.0110           0
      6328 MEMB     48       POPC     H3X      HAL2     0.900000E-01   1.00800           0
      6329 MEMB     48       POPC     H3Y      HAL2     0.900000E-01   1.00800           0
      6330 MEMB     48       POPC     C34      CTL2    -0.180000       12.0110           0
      6331 MEMB     48       POPC     H4X      HAL2     0.900000E-01   1.00800           0
      6332 MEMB     48       POPC     H4Y      HAL2     0.900000E-01   1.00800           0
      6333 MEMB     48       POPC     C35      CTL2    -0.180000       12.0110           0
      6334 MEMB     48       POPC     H5X      HAL2     0.900000E-01   1.00800           0
      6335 MEMB     48       POPC     H5Y      HAL2     0.900000E-01   1.00800           0
      6336 MEMB     48       POPC     C36      CTL2    -0.180000       12.0110           0
      6337 MEMB     48       POPC     H6X      HAL2     0.900000E-01   1.00800           0
      6338 MEMB     48       POPC     H6Y      HAL2     0.900000E-01   1.00800           0
      6339 MEMB     48       POPC     C37      CTL2    -0.180000       12.0110           0
      6340 MEMB     48       POPC     H7X      HAL2     0.900000E-01   1.00800           0
      6341 MEMB     48       POPC     H7Y      HAL2     0.900000E-01   1.00800           0
      6342 MEMB     48       POPC     C38      CTL2    -0.180000       12.0110           0
      6343 MEMB     48       POPC     H8X      HAL2     0.900000E-01   1.00800           0
      6344 MEMB     48       POPC     H8Y      HAL2     0.900000E-01   1.00800           0
      6345 MEMB     48       POPC     C39      CTL2    -0.180000       12.0110           0
      6346 MEMB     48       POPC     H9X      HAL2     0.900000E-01   1.00800           0
      6347 MEMB     48       POPC     H9Y      HAL2     0.900000E-01   1.00800           0
      6348 MEMB     48       POPC     C310     CTL2    -0.180000       12.0110           0
      6349 MEMB     48       POPC     H10X     HAL2     0.900000E-01   1.00800           0
      6350 MEMB     48       POPC     H10Y     HAL2     0.900000E-01   1.00800           0
      6351 MEMB     48       POPC     C311     CTL2    -0.180000       12.0110           0
      6352 MEMB     48       POPC     H11X     HAL2     0.900000E-01   1.00800           0
      6353 MEMB     48       POPC     H11Y     HAL2     0.900000E-01   1.00800           0
      6354 MEMB     48       POPC     C312     CTL2    -0.180000       12.0110           0
      6355 MEMB     48       POPC     H12X     HAL2     0.900000E-01   1.00800           0
      6356 MEMB     48       POPC     H12Y     HAL2     0.900000E-01   1.00800           0
      6357 MEMB     48       POPC     C313     CTL2    -0.180000       12.0110           0
      6358 MEMB     48       POPC     H13X     HAL2     0.900000E-01   1.00800           0
      6359 MEMB     48       POPC     H13Y     HAL2     0.900000E-01   1.00800           0
      6360 MEMB     48       POPC     C314     CTL2    -0.180000       12.0110           0
      6361 MEMB     48       POPC     H14X     HAL2     0.900000E-01   1.00800           0
      6362 MEMB     48       POPC     H14Y     HAL2     0.900000E-01   1.00800           0
      6363 MEMB     48       POPC     C315     CTL2    -0.180000       12.0110           0
      6364 MEMB     48       POPC     H15X     HAL2     0.900000E-01   1.00800           0
      6365 MEMB     48       POPC     H15Y     HAL2     0.900000E-01   1.00800           0
      6366 MEMB     48       POPC     C316     CTL3    -0.270000       12.0110           0
      6367 MEMB     48       POPC     H16X     HAL3     0.900000E-01   1.00800           0
      6368 MEMB     48       POPC     H16Y     HAL3     0.900000E-01   1.00800           0
      6369 MEMB     48       POPC     H16Z     HAL3     0.900000E-01   1.00800           0
      6370 MEMB     49       POPC     N        NTL     -0.600000       14.0070           0
      6371 MEMB     49       POPC     C12      CTL2    -0.100000       12.0110           0
      6372 MEMB     49       POPC     H12A     HL       0.250000       1.00800           0
      6373 MEMB     49       POPC     H12B     HL       0.250000       1.00800           0
      6374 MEMB     49       POPC     C13      CTL5    -0.350000       12.0110           0
      6375 MEMB     49       POPC     H13A     HL       0.250000       1.00800           0
      6376 MEMB     49       POPC     H13B     HL       0.250000       1.00800           0
      6377 MEMB     49       POPC     H13C     HL       0.250000       1.00800           0
      6378 MEMB     49       POPC     C14      CTL5    -0.350000       12.0110           0
      6379 MEMB     49       POPC     H14A     HL       0.250000       1.00800           0
      6380 MEMB     49       POPC     H14B     HL       0.250000       1.00800           0
      6381 MEMB     49       POPC     H14C     HL       0.250000       1.00800           0
      6382 MEMB     49       POPC     C15      CTL5    -0.350000       12.0110           0
      6383 MEMB     49       POPC     H15A     HL       0.250000       1.00800           0
      6384 MEMB     49       POPC     H15B     HL       0.250000       1.00800           0
      6385 MEMB     49       POPC     H15C     HL       0.250000       1.00800           0
      6386 MEMB     49       POPC     C11      CTL2    -0.800000E-01   12.0110           0
      6387 MEMB     49       POPC     H11A     HAL2     0.900000E-01   1.00800           0
      6388 MEMB     49       POPC     H11B     HAL2     0.900000E-01   1.00800           0
      6389 MEMB     49       POPC     P        PL        1.50000       30.9740           0
      6390 MEMB     49       POPC     O13      O2L     -0.780000       15.9994           0
      6391 MEMB     49       POPC     O14      O2L     -0.780000       15.9994           0
      6392 MEMB     49       POPC     O12      OSLP    -0.570000       15.9994           0
      6393 MEMB     49       POPC     O11      OSLP    -0.570000       15.9994           0
      6394 MEMB     49       POPC     C1       CTL2    -0.800000E-01   12.0110           0
      6395 MEMB     49       POPC     HA       HAL2     0.900000E-01   1.00800           0
      6396 MEMB     49       POPC     HB       HAL2     0.900000E-01   1.00800           0
      6397 MEMB     49       POPC     C2       CTL1     0.170000       12.0110           0
      6398 MEMB     49       POPC     HS       HAL1     0.900000E-01   1.00800           0
      6399 MEMB     49       POPC     O21      OSL     -0.490000       15.9994           0
      6400 MEMB     49       POPC     C21      CL       0.900000       12.0110           0
      6401 MEMB     49       POPC     O22      OBL     -0.630000       15.9994           0
      6402 MEMB     49       POPC     C22      CTL2    -0.220000       12.0110           0
      6403 MEMB     49       POPC     H2R      HAL2     0.900000E-01   1.00800           0
      6404 MEMB     49       POPC     H2S      HAL2     0.900000E-01   1.00800           0
      6405 MEMB     49       POPC     C3       CTL2     0.800000E-01   12.0110           0
      6406 MEMB     49       POPC     HX       HAL2     0.900000E-01   1.00800           0
      6407 MEMB     49       POPC     HY       HAL2     0.900000E-01   1.00800           0
      6408 MEMB     49       POPC     O31      OSL     -0.490000       15.9994           0
      6409 MEMB     49       POPC     C31      CL       0.900000       12.0110           0
      6410 MEMB     49       POPC     O32      OBL     -0.630000       15.9994           0
      6411 MEMB     49       POPC     C32      CTL2    -0.220000       12.0110           0
      6412 MEMB     49       POPC     H2X      HAL2     0.900000E-01   1.00800           0
      6413 MEMB     49       POPC     H2Y      HAL2     0.900000E-01   1.00800           0
      6414 MEMB     49       POPC     C23      CTL2    -0.180000       12.0110           0
      6415 MEMB     49       POPC     H3R      HAL2     0.900000E-01   1.00800           0
      6416 MEMB     49       POPC     H3S      HAL2     0.900000E-01   1.00800           0
      6417 MEMB     49       POPC     C24      CTL2    -0.180000       12.0110           0
      6418 MEMB     49       POPC     H4R      HAL2     0.900000E-01   1.00800           0
      6419 MEMB     49       POPC     H4S      HAL2     0.900000E-01   1.00800           0
      6420 MEMB     49       POPC     C25      CTL2    -0.180000       12.0110           0
      6421 MEMB     49       POPC     H5R      HAL2     0.900000E-01   1.00800           0
      6422 MEMB     49       POPC     H5S      HAL2     0.900000E-01   1.00800           0
      6423 MEMB     49       POPC     C26      CTL2    -0.180000       12.0110           0
      6424 MEMB     49       POPC     H6R      HAL2     0.900000E-01   1.00800           0
      6425 MEMB     49       POPC     H6S      HAL2     0.900000E-01   1.00800           0
      6426 MEMB     49       POPC     C27      CTL2    -0.180000       12.0110           0
      6427 MEMB     49       POPC     H7R      HAL2     0.900000E-01   1.00800           0
      6428 MEMB     49       POPC     H7S      HAL2     0.900000E-01   1.00800           0
      6429 MEMB     49       POPC     C28      CTL2    -0.180000       12.0110           0
      6430 MEMB     49       POPC     H8R      HAL2     0.900000E-01   1.00800           0
      6431 MEMB     49       POPC     H8S      HAL2     0.900000E-01   1.00800           0
      6432 MEMB     49       POPC     C29      CEL1    -0.150000       12.0110           0
      6433 MEMB     49       POPC     H91      HEL1     0.150000       1.00800           0
      6434 MEMB     49       POPC     C210     CEL1    -0.150000       12.0110           0
      6435 MEMB     49       POPC     H101     HEL1     0.150000       1.00800           0
      6436 MEMB     49       POPC     C211     CTL2    -0.180000       12.0110           0
      6437 MEMB     49       POPC     H11R     HAL2     0.900000E-01   1.00800           0
      6438 MEMB     49       POPC     H11S     HAL2     0.900000E-01   1.00800           0
      6439 MEMB     49       POPC     C212     CTL2    -0.180000       12.0110           0
      6440 MEMB     49       POPC     H12R     HAL2     0.900000E-01   1.00800           0
      6441 MEMB     49       POPC     H12S     HAL2     0.900000E-01   1.00800           0
      6442 MEMB     49       POPC     C213     CTL2    -0.180000       12.0110           0
      6443 MEMB     49       POPC     H13R     HAL2     0.900000E-01   1.00800           0
      6444 MEMB     49       POPC     H13S     HAL2     0.900000E-01   1.00800           0
      6445 MEMB     49       POPC     C214     CTL2    -0.180000       12.0110           0
      6446 MEMB     49       POPC     H14R     HAL2     0.900000E-01   1.00800           0
      6447 MEMB     49       POPC     H14S     HAL2     0.900000E-01   1.00800           0
      6448 MEMB     49       POPC     C215     CTL2    -0.180000       12.0110           0
      6449 MEMB     49       POPC     H15R     HAL2     0.900000E-01   1.00800           0
      6450 MEMB     49       POPC     H15S     HAL2     0.900000E-01   1.00800           0
      6451 MEMB     49       POPC     C216     CTL2    -0.180000       12.0110           0
      6452 MEMB     49       POPC     H16R     HAL2     0.900000E-01   1.00800           0
      6453 MEMB     49       POPC     H16S     HAL2     0.900000E-01   1.00800           0
      6454 MEMB     49       POPC     C217     CTL2    -0.180000       12.0110           0
      6455 MEMB     49       POPC     H17R     HAL2     0.900000E-01   1.00800           0
      6456 MEMB     49       POPC     H17S     HAL2     0.900000E-01   1.00800           0
      6457 MEMB     49       POPC     C218     CTL3    -0.270000       12.0110           0
      6458 MEMB     49       POPC     H18R     HAL3     0.900000E-01   1.00800           0
      6459 MEMB     49       POPC     H18S     HAL3     0.900000E-01   1.00800           0
      6460 MEMB     49       POPC     H18T     HAL3     0.900000E-01   1.00800           0
      6461 MEMB     49       POPC     C33      CTL2    -0.180000       12.0110           0
      6462 MEMB     49       POPC     H3X      HAL2     0.900000E-01   1.00800           0
      6463 MEMB     49       POPC     H3Y      HAL2     0.900000E-01   1.00800           0
      6464 MEMB     49       POPC     C34      CTL2    -0.180000       12.0110           0
      6465 MEMB     49       POPC     H4X      HAL2     0.900000E-01   1.00800           0
      6466 MEMB     49       POPC     H4Y      HAL2     0.900000E-01   1.00800           0
      6467 MEMB     49       POPC     C35      CTL2    -0.180000       12.0110           0
      6468 MEMB     49       POPC     H5X      HAL2     0.900000E-01   1.00800           0
      6469 MEMB     49       POPC     H5Y      HAL2     0.900000E-01   1.00800           0
      6470 MEMB     49       POPC     C36      CTL2    -0.180000       12.0110           0
      6471 MEMB     49       POPC     H6X      HAL2     0.900000E-01   1.00800           0
      6472 MEMB     49       POPC     H6Y      HAL2     0.900000E-01   1.00800           0
      6473 MEMB     49       POPC     C37      CTL2    -0.180000       12.0110           0
      6474 MEMB     49       POPC     H7X      HAL2     0.900000E-01   1.00800           0
      6475 MEMB     49       POPC     H7Y      HAL2     0.900000E-01   1.00800           0
      6476 MEMB     49       POPC     C38      CTL2    -0.180000       12.0110           0
      6477 MEMB     49       POPC     H8X      HAL2     0.900000E-01   1.00800           0
      6478 MEMB     49       POPC     H8Y      HAL2     0.900000E-01   1.00800           0
      6479 MEMB     49       POPC     C39      CTL2    -0.180000       12.0110           0
      6480 MEMB     49       POPC     H9X      HAL2     0.900000E-01   1.00800           0
      6481 MEMB     49       POPC     H9Y      HAL2     0.900000E-01   1.00800           0
      6482 MEMB     49       POPC     C310     CTL2    -0.180000       12.0110           0
      6483 MEMB     49       POPC     H10X     HAL2     0.900000E-01   1.00800           0
      6484 MEMB     49       POPC     H10Y     HAL2     0.900000E-01   1.00800           0
      6485 MEMB     49       POPC     C311     CTL2    -0.180000       12.0110           0
      6486 MEMB     49       POPC     H11X     HAL2     0.900000E-01   1.00800           0
      6487 MEMB     49       POPC     H11Y     HAL2     0.900000E-01   1.00800           0
      6488 MEMB     49       POPC     C312     CTL2    -0.180000       12.0110           0
      6489 MEMB     49       POPC     H12X     HAL2     0.900000E-01   1.00800           0
      6490 MEMB     49       POPC     H12Y     HAL2     0.900000E-01   1.00800           0
      6491 MEMB     49       POPC     C313     CTL2    -0.180000       12.0110           0
      6492 MEMB     49       POPC     H13X     HAL2     0.900000E-01   1.00800           0
      6493 MEMB     49       POPC     H13Y     HAL2     0.900000E-01   1.00800           0
      6494 MEMB     49       POPC     C314     CTL2    -0.180000       12.0110           0
      6495 MEMB     49       POPC     H14X     HAL2     0.900000E-01   1.00800           0
      6496 MEMB     49       POPC     H14Y     HAL2     0.900000E-01   1.00800           0
      6497 MEMB     49       POPC     C315     CTL2    -0.180000       12.0110           0
      6498 MEMB     49       POPC     H15X     HAL2     0.900000E-01   1.00800           0
      6499 MEMB     49       POPC     H15Y     HAL2     0.900000E-01   1.00800           0
      6500 MEMB     49       POPC     C316     CTL3    -0.270000       12.0110           0
      6501 MEMB     49       POPC     H16X     HAL3     0.900000E-01   1.00800           0
      6502 MEMB     49       POPC     H16Y     HAL3     0.900000E-01   1.00800           0
      6503 MEMB     49       POPC     H16Z     HAL3     0.900000E-01   1.00800           0
      6504 MEMB     50       POPS     N        NH3L    -0.300000       14.0070           0
      6505 MEMB     50       POPS     HN1      HCL      0.330000       1.00800           0
      6506 MEMB     50       POPS     HN2      HCL      0.330000       1.00800           0
      6507 MEMB     50       POPS     HN3      HCL      0.330000       1.00800           0
      6508 MEMB     50       POPS     C12      CTL1     0.210000       12.0110           0
      6509 MEMB     50       POPS     H12A     HBL      0.100000       1.00800           0
      6510 MEMB     50       POPS     C13      CCL      0.340000       12.0110           0
      6511 MEMB     50       POPS     O13A     OCL     -0.670000       15.9994           0
      6512 MEMB     50       POPS     O13B     OCL     -0.670000       15.9994           0
      6513 MEMB     50       POPS     C11      CTL2    -0.800000E-01   12.0110           0
      6514 MEMB     50       POPS     H11A     HAL2     0.900000E-01   1.00800           0
      6515 MEMB     50       POPS     H11B     HAL2     0.900000E-01   1.00800           0
      6516 MEMB     50       POPS     P        PL        1.50000       30.9740           0
      6517 MEMB     50       POPS     O13      O2L     -0.780000       15.9994           0
      6518 MEMB     50       POPS     O14      O2L     -0.780000       15.9994           0
      6519 MEMB     50       POPS     O12      OSLP    -0.570000       15.9994           0
      6520 MEMB     50       POPS     O11      OSLP    -0.570000       15.9994           0
      6521 MEMB     50       POPS     C1       CTL2    -0.800000E-01   12.0110           0
      6522 MEMB     50       POPS     HA       HAL2     0.900000E-01   1.00800           0
      6523 MEMB     50       POPS     HB       HAL2     0.900000E-01   1.00800           0
      6524 MEMB     50       POPS     C2       CTL1     0.170000       12.0110           0
      6525 MEMB     50       POPS     HS       HAL1     0.900000E-01   1.00800           0
      6526 MEMB     50       POPS     O21      OSL     -0.490000       15.9994           0
      6527 MEMB     50       POPS     C21      CL       0.900000       12.0110           0
      6528 MEMB     50       POPS     O22      OBL     -0.630000       15.9994           0
      6529 MEMB     50       POPS     C22      CTL2    -0.220000       12.0110           0
      6530 MEMB     50       POPS     H2R      HAL2     0.900000E-01   1.00800           0
      6531 MEMB     50       POPS     H2S      HAL2     0.900000E-01   1.00800           0
      6532 MEMB     50       POPS     C3       CTL2     0.800000E-01   12.0110           0
      6533 MEMB     50       POPS     HX       HAL2     0.900000E-01   1.00800           0
      6534 MEMB     50       POPS     HY       HAL2     0.900000E-01   1.00800           0
      6535 MEMB     50       POPS     O31      OSL     -0.490000       15.9994           0
      6536 MEMB     50       POPS     C31      CL       0.900000       12.0110           0
      6537 MEMB     50       POPS     O32      OBL     -0.630000       15.9994           0
      6538 MEMB     50       POPS     C32      CTL2    -0.220000       12.0110           0
      6539 MEMB     50       POPS     H2X      HAL2     0.900000E-01   1.00800           0
      6540 MEMB     50       POPS     H2Y      HAL2     0.900000E-01   1.00800           0
      6541 MEMB     50       POPS     C23      CTL2    -0.180000       12.0110           0
      6542 MEMB     50       POPS     H3R      HAL2     0.900000E-01   1.00800           0
      6543 MEMB     50       POPS     H3S      HAL2     0.900000E-01   1.00800           0
      6544 MEMB     50       POPS     C24      CTL2    -0.180000       12.0110           0
      6545 MEMB     50       POPS     H4R      HAL2     0.900000E-01   1.00800           0
      6546 MEMB     50       POPS     H4S      HAL2     0.900000E-01   1.00800           0
      6547 MEMB     50       POPS     C25      CTL2    -0.180000       12.0110           0
      6548 MEMB     50       POPS     H5R      HAL2     0.900000E-01   1.00800           0
      6549 MEMB     50       POPS     H5S      HAL2     0.900000E-01   1.00800           0
      6550 MEMB     50       POPS     C26      CTL2    -0.180000       12.0110           0
      6551 MEMB     50       POPS     H6R      HAL2     0.900000E-01   1.00800           0
      6552 MEMB     50       POPS     H6S      HAL2     0.900000E-01   1.00800           0
      6553 MEMB     50       POPS     C27      CTL2    -0.180000       12.0110           0
      6554 MEMB     50       POPS     H7R      HAL2     0.900000E-01   1.00800           0
      6555 MEMB     50       POPS     H7S      HAL2     0.900000E-01   1.00800           0
      6556 MEMB     50       POPS     C28      CTL2    -0.180000       12.0110           0
      6557 MEMB     50       POPS     H8R      HAL2     0.900000E-01   1.00800           0
      6558 MEMB     50       POPS     H8S      HAL2     0.900000E-01   1.00800           0
      6559 MEMB     50       POPS     C29      CEL1    -0.150000       12.0110           0
      6560 MEMB     50       POPS     H91      HEL1     0.150000       1.00800           0
      6561 MEMB     50       POPS     C210     CEL1    -0.150000       12.0110           0
      6562 MEMB     50       POPS     H101     HEL1     0.150000       1.00800           0
      6563 MEMB     50       POPS     C211     CTL2    -0.180000       12.0110           0
      6564 MEMB     50       POPS     H11R     HAL2     0.900000E-01   1.00800           0
      6565 MEMB     50       POPS     H11S     HAL2     0.900000E-01   1.00800           0
      6566 MEMB     50       POPS     C212     CTL2    -0.180000       12.0110           0
      6567 MEMB     50       POPS     H12R     HAL2     0.900000E-01   1.00800           0
      6568 MEMB     50       POPS     H12S     HAL2     0.900000E-01   1.00800           0
      6569 MEMB     50       POPS     C213     CTL2    -0.180000       12.0110           0
      6570 MEMB     50       POPS     H13R     HAL2     0.900000E-01   1.00800           0
      6571 MEMB     50       POPS     H13S     HAL2     0.900000E-01   1.00800           0
      6572 MEMB     50       POPS     C214     CTL2    -0.180000       12.0110           0
      6573 MEMB     50       POPS     H14R     HAL2     0.900000E-01   1.00800           0
      6574 MEMB     50       POPS     H14S     HAL2     0.900000E-01   1.00800           0
      6575 MEMB     50       POPS     C215     CTL2    -0.180000       12.0110           0
      6576 MEMB     50       POPS     H15R     HAL2     0.900000E-01   1.00800           0
      6577 MEMB     50       POPS     H15S     HAL2     0.900000E-01   1.00800           0
      6578 MEMB     50       POPS     C216     CTL2    -0.180000       12.0110           0
      6579 MEMB     50       POPS     H16R     HAL2     0.900000E-01   1.00800           0
      6580 MEMB     50       POPS     H16S     HAL2     0.900000E-01   1.00800           0
      6581 MEMB     50       POPS     C217     CTL2    -0.180000       12.0110           0
      6582 MEMB     50       POPS     H17R     HAL2     0.900000E-01   1.00800           0
      6583 MEMB     50       POPS     H17S     HAL2     0.900000E-01   1.00800           0
      6584 MEMB     50       POPS     C218     CTL3    -0.270000       12.0110           0
      6585 MEMB     50       POPS     H18R     HAL3     0.900000E-01   1.00800           0
      6586 MEMB     50       POPS     H18S     HAL3     0.900000E-01   1.00800           0
      6587 MEMB     50       POPS     H18T     HAL3     0.900000E-01   1.00800           0
      6588 MEMB     50       POPS     C33      CTL2    -0.180000       12.0110           0
      6589 MEMB     50       POPS     H3X      HAL2     0.900000E-01   1.00800           0
      6590 MEMB     50       POPS     H3Y      HAL2     0.900000E-01   1.00800           0
      6591 MEMB     50       POPS     C34      CTL2    -0.180000       12.0110           0
      6592 MEMB     50       POPS     H4X      HAL2     0.900000E-01   1.00800           0
      6593 MEMB     50       POPS     H4Y      HAL2     0.900000E-01   1.00800           0
      6594 MEMB     50       POPS     C35      CTL2    -0.180000       12.0110           0
      6595 MEMB     50       POPS     H5X      HAL2     0.900000E-01   1.00800           0
      6596 MEMB     50       POPS     H5Y      HAL2     0.900000E-01   1.00800           0
      6597 MEMB     50       POPS     C36      CTL2    -0.180000       12.0110           0
      6598 MEMB     50       POPS     H6X      HAL2     0.900000E-01   1.00800           0
      6599 MEMB     50       POPS     H6Y      HAL2     0.900000E-01   1.00800           0
      6600 MEMB     50       POPS     C37      CTL2    -0.180000       12.0110           0
      6601 MEMB     50       POPS     H7X      HAL2     0.900000E-01   1.00800           0
      6602 MEMB     50       POPS     H7Y      HAL2     0.900000E-01   1.00800           0
      6603 MEMB     50       POPS     C38      CTL2    -0.180000       12.0110           0
      6604 MEMB     50       POPS     H8X      HAL2     0.900000E-01   1.00800           0
      6605 MEMB     50       POPS     H8Y      HAL2     0.900000E-01   1.00800           0
      6606 MEMB     50       POPS     C39      CTL2    -0.180000       12.0110           0
      6607 MEMB     50       POPS     H9X      HAL2     0.900000E-01   1.00800           0
      6608 MEMB     50       POPS     H9Y      HAL2     0.900000E-01   1.00800           0
      6609 MEMB     50       POPS     C310     CTL2    -0.180000       12.0110           0
      6610 MEMB     50       POPS     H10X     HAL2     0.900000E-01   1.00800           0
      6611 MEMB     50       POPS     H10Y     HAL2     0.900000E-01   1.00800           0
      6612 MEMB     50       POPS     C311     CTL2    -0.180000       12.0110           0
      6613 MEMB     50       POPS     H11X     HAL2     0.900000E-01   1.00800           0
      6614 MEMB     50       POPS     H11Y     HAL2     0.900000E-01   1.00800           0
      6615 MEMB     50       POPS     C312     CTL2    -0.180000       12.0110           0
      6616 MEMB     50       POPS     H12X     HAL2     0.900000E-01   1.00800           0
      6617 MEMB     50       POPS     H12Y     HAL2     0.900000E-01   1.00800           0
      6618 MEMB     50       POPS     C313     CTL2    -0.180000       12.0110           0
      6619 MEMB     50       POPS     H13X     HAL2     0.900000E-01   1.00800           0
      6620 MEMB     50       POPS     H13Y     HAL2     0.900000E-01   1.00800           0
      6621 MEMB     50       POPS     C314     CTL2    -0.180000       12.0110           0
      6622 MEMB     50       POPS     H14X     HAL2     0.900000E-01   1.00800           0
      6623 MEMB     50       POPS     H14Y     HAL2     0.900000E-01   1.00800           0
      6624 MEMB     50       POPS     C315     CTL2    -0.180000       12.0110           0
      6625 MEMB     50       POPS     H15X     HAL2     0.900000E-01   1.00800           0
      6626 MEMB     50       POPS     H15Y     HAL2     0.900000E-01   1.00800           0
      6627 MEMB     50       POPS     C316     CTL3    -0.270000       12.0110           0
      6628 MEMB     50       POPS     H16X     HAL3     0.900000E-01   1.00800           0
      6629 MEMB     50       POPS     H16Y     HAL3     0.900000E-01   1.00800           0
      6630 MEMB     50       POPS     H16Z     HAL3     0.900000E-01   1.00800           0
      6631 MEMB     51       POPS     N        NH3L    -0.300000       14.0070           0
      6632 MEMB     51       POPS     HN1      HCL      0.330000       1.00800           0
      6633 MEMB     51       POPS     HN2      HCL      0.330000       1.00800           0
      6634 MEMB     51       POPS     HN3      HCL      0.330000       1.00800           0
      6635 MEMB     51       POPS     C12      CTL1     0.210000       12.0110           0
      6636 MEMB     51       POPS     H12A     HBL      0.100000       1.00800           0
      6637 MEMB     51       POPS     C13      CCL      0.340000       12.0110           0
      6638 MEMB     51       POPS     O13A     OCL     -0.670000       15.9994           0
      6639 MEMB     51       POPS     O13B     OCL     -0.670000       15.9994           0
      6640 MEMB     51       POPS     C11      CTL2    -0.800000E-01   12.0110           0
      6641 MEMB     51       POPS     H11A     HAL2     0.900000E-01   1.00800           0
      6642 MEMB     51       POPS     H11B     HAL2     0.900000E-01   1.00800           0
      6643 MEMB     51       POPS     P        PL        1.50000       30.9740           0
      6644 MEMB     51       POPS     O13      O2L     -0.780000       15.9994           0
      6645 MEMB     51       POPS     O14      O2L     -0.780000       15.9994           0
      6646 MEMB     51       POPS     O12      OSLP    -0.570000       15.9994           0
      6647 MEMB     51       POPS     O11      OSLP    -0.570000       15.9994           0
      6648 MEMB     51       POPS     C1       CTL2    -0.800000E-01   12.0110           0
      6649 MEMB     51       POPS     HA       HAL2     0.900000E-01   1.00800           0
      6650 MEMB     51       POPS     HB       HAL2     0.900000E-01   1.00800           0
      6651 MEMB     51       POPS     C2       CTL1     0.170000       12.0110           0
      6652 MEMB     51       POPS     HS       HAL1     0.900000E-01   1.00800           0
      6653 MEMB     51       POPS     O21      OSL     -0.490000       15.9994           0
      6654 MEMB     51       POPS     C21      CL       0.900000       12.0110           0
      6655 MEMB     51       POPS     O22      OBL     -0.630000       15.9994           0
      6656 MEMB     51       POPS     C22      CTL2    -0.220000       12.0110           0
      6657 MEMB     51       POPS     H2R      HAL2     0.900000E-01   1.00800           0
      6658 MEMB     51       POPS     H2S      HAL2     0.900000E-01   1.00800           0
      6659 MEMB     51       POPS     C3       CTL2     0.800000E-01   12.0110           0
      6660 MEMB     51       POPS     HX       HAL2     0.900000E-01   1.00800           0
      6661 MEMB     51       POPS     HY       HAL2     0.900000E-01   1.00800           0
      6662 MEMB     51       POPS     O31      OSL     -0.490000       15.9994           0
      6663 MEMB     51       POPS     C31      CL       0.900000       12.0110           0
      6664 MEMB     51       POPS     O32      OBL     -0.630000       15.9994           0
      6665 MEMB     51       POPS     C32      CTL2    -0.220000       12.0110           0
      6666 MEMB     51       POPS     H2X      HAL2     0.900000E-01   1.00800           0
      6667 MEMB     51       POPS     H2Y      HAL2     0.900000E-01   1.00800           0
      6668 MEMB     51       POPS     C23      CTL2    -0.180000       12.0110           0
      6669 MEMB     51       POPS     H3R      HAL2     0.900000E-01   1.00800           0
      6670 MEMB     51       POPS     H3S      HAL2     0.900000E-01   1.00800           0
      6671 MEMB     51       POPS     C24      CTL2    -0.180000       12.0110           0
      6672 MEMB     51       POPS     H4R      HAL2     0.900000E-01   1.00800           0
      6673 MEMB     51       POPS     H4S      HAL2     0.900000E-01   1.00800           0
      6674 MEMB     51       POPS     C25      CTL2    -0.180000       12.0110           0
      6675 MEMB     51       POPS     H5R      HAL2     0.900000E-01   1.00800           0
      6676 MEMB     51       POPS     H5S      HAL2     0.900000E-01   1.00800           0
      6677 MEMB     51       POPS     C26      CTL2    -0.180000       12.0110           0
      6678 MEMB     51       POPS     H6R      HAL2     0.900000E-01   1.00800           0
      6679 MEMB     51       POPS     H6S      HAL2     0.900000E-01   1.00800           0
      6680 MEMB     51       POPS     C27      CTL2    -0.180000       12.0110           0
      6681 MEMB     51       POPS     H7R      HAL2     0.900000E-01   1.00800           0
      6682 MEMB     51       POPS     H7S      HAL2     0.900000E-01   1.00800           0
      6683 MEMB     51       POPS     C28      CTL2    -0.180000       12.0110           0
      6684 MEMB     51       POPS     H8R      HAL2     0.900000E-01   1.00800           0
      6685 MEMB     51       POPS     H8S      HAL2     0.900000E-01   1.00800           0
      6686 MEMB     51       POPS     C29      CEL1    -0.150000       12.0110           0
      6687 MEMB     51       POPS     H91      HEL1     0.150000       1.00800           0
      6688 MEMB     51       POPS     C210     CEL1    -0.150000       12.0110           0
      6689 MEMB     51       POPS     H101     HEL1     0.150000       1.00800           0
      6690 MEMB     51       POPS     C211     CTL2    -0.180000       12.0110           0
      6691 MEMB     51       POPS     H11R     HAL2     0.900000E-01   1.00800           0
      6692 MEMB     51       POPS     H11S     HAL2     0.900000E-01   1.00800           0
      6693 MEMB     51       POPS     C212     CTL2    -0.180000       12.0110           0
      6694 MEMB     51       POPS     H12R     HAL2     0.900000E-01   1.00800           0
      6695 MEMB     51       POPS     H12S     HAL2     0.900000E-01   1.00800           0
      6696 MEMB     51       POPS     C213     CTL2    -0.180000       12.0110           0
      6697 MEMB     51       POPS     H13R     HAL2     0.900000E-01   1.00800           0
      6698 MEMB     51       POPS     H13S     HAL2     0.900000E-01   1.00800           0
      6699 MEMB     51       POPS     C214     CTL2    -0.180000       12.0110           0
      6700 MEMB     51       POPS     H14R     HAL2     0.900000E-01   1.00800           0
      6701 MEMB     51       POPS     H14S     HAL2     0.900000E-01   1.00800           0
      6702 MEMB     51       POPS     C215     CTL2    -0.180000       12.0110           0
      6703 MEMB     51       POPS     H15R     HAL2     0.900000E-01   1.00800           0
      6704 MEMB     51       POPS     H15S     HAL2     0.900000E-01   1.00800           0
      6705 MEMB     51       POPS     C216     CTL2    -0.180000       12.0110           0
      6706 MEMB     51       POPS     H16R     HAL2     0.900000E-01   1.00800           0
      6707 MEMB     51       POPS     H16S     HAL2     0.900000E-01   1.00800           0
      6708 MEMB     51       POPS     C217     CTL2    -0.180000       12.0110           0
      6709 MEMB     51       POPS     H17R     HAL2     0.900000E-01   1.00800           0
      6710 MEMB     51       POPS     H17S     HAL2     0.900000E-01   1.00800           0
      6711 MEMB     51       POPS     C218     CTL3    -0.270000       12.0110           0
      6712 MEMB     51       POPS     H18R     HAL3     0.900000E-01   1.00800           0
      6713 MEMB     51       POPS     H18S     HAL3     0.900000E-01   1.00800           0
      6714 MEMB     51       POPS     H18T     HAL3     0.900000E-01   1.00800           0
      6715 MEMB     51       POPS     C33      CTL2    -0.180000       12.0110           0
      6716 MEMB     51       POPS     H3X      HAL2     0.900000E-01   1.00800           0
      6717 MEMB     51       POPS     H3Y      HAL2     0.900000E-01   1.00800           0
      6718 MEMB     51       POPS     C34      CTL2    -0.180000       12.0110           0
      6719 MEMB     51       POPS     H4X      HAL2     0.900000E-01   1.00800           0
      6720 MEMB     51       POPS     H4Y      HAL2     0.900000E-01   1.00800           0
      6721 MEMB     51       POPS     C35      CTL2    -0.180000       12.0110           0
      6722 MEMB     51       POPS     H5X      HAL2     0.900000E-01   1.00800           0
      6723 MEMB     51       POPS     H5Y      HAL2     0.900000E-01   1.00800           0
      6724 MEMB     51       POPS     C36      CTL2    -0.180000       12.0110           0
      6725 MEMB     51       POPS     H6X      HAL2     0.900000E-01   1.00800           0
      6726 MEMB     51       POPS     H6Y      HAL2     0.900000E-01   1.00800           0
      6727 MEMB     51       POPS     C37      CTL2    -0.180000       12.0110           0
      6728 MEMB     51       POPS     H7X      HAL2     0.900000E-01   1.00800           0
      6729 MEMB     51       POPS     H7Y      HAL2     0.900000E-01   1.00800           0
      6730 MEMB     51       POPS     C38      CTL2    -0.180000       12.0110           0
      6731 MEMB     51       POPS     H8X      HAL2     0.900000E-01   1.00800           0
      6732 MEMB     51       POPS     H8Y      HAL2     0.900000E-01   1.00800           0
      6733 MEMB     51       POPS     C39      CTL2    -0.180000       12.0110           0
      6734 MEMB     51       POPS     H9X      HAL2     0.900000E-01   1.00800           0
      6735 MEMB     51       POPS     H9Y      HAL2     0.900000E-01   1.00800           0
      6736 MEMB     51       POPS     C310     CTL2    -0.180000       12.0110           0
      6737 MEMB     51       POPS     H10X     HAL2     0.900000E-01   1.00800           0
      6738 MEMB     51       POPS     H10Y     HAL2     0.900000E-01   1.00800           0
      6739 MEMB     51       POPS     C311     CTL2    -0.180000       12.0110           0
      6740 MEMB     51       POPS     H11X     HAL2     0.900000E-01   1.00800           0
      6741 MEMB     51       POPS     H11Y     HAL2     0.900000E-01   1.00800           0
      6742 MEMB     51       POPS     C312     CTL2    -0.180000       12.0110           0
      6743 MEMB     51       POPS     H12X     HAL2     0.900000E-01   1.00800           0
      6744 MEMB     51       POPS     H12Y     HAL2     0.900000E-01   1.00800           0
      6745 MEMB     51       POPS     C313     CTL2    -0.180000       12.0110           0
      6746 MEMB     51       POPS     H13X     HAL2     0.900000E-01   1.00800           0
      6747 MEMB     51       POPS     H13Y     HAL2     0.900000E-01   1.00800           0
      6748 MEMB     51       POPS     C314     CTL2    -0.180000       12.0110           0
      6749 MEMB     51       POPS     H14X     HAL2     0.900000E-01   1.00800           0
      6750 MEMB     51       POPS     H14Y     HAL2     0.900000E-01   1.00800           0
      6751 MEMB     51       POPS     C315     CTL2    -0.180000       12.0110           0
      6752 MEMB     51       POPS     H15X     HAL2     0.900000E-01   1.00800           0
      6753 MEMB     51       POPS     H15Y     HAL2     0.900000E-01   1.00800           0
      6754 MEMB     51       POPS     C316     CTL3    -0.270000       12.0110           0
      6755 MEMB     51       POPS     H16X     HAL3     0.900000E-01   1.00800           0
      6756 MEMB     51       POPS     H16Y     HAL3     0.900000E-01   1.00800           0
      6757 MEMB     51       POPS     H16Z     HAL3     0.900000E-01   1.00800           0
      6758 MEMB     52       POPC     N        NTL     -0.600000       14.0070           0
      6759 MEMB     52       POPC     C12      CTL2    -0.100000       12.0110           0
      6760 MEMB     52       POPC     H12A     HL       0.250000       1.00800           0
      6761 MEMB     52       POPC     H12B     HL       0.250000       1.00800           0
      6762 MEMB     52       POPC     C13      CTL5    -0.350000       12.0110           0
      6763 MEMB     52       POPC     H13A     HL       0.250000       1.00800           0
      6764 MEMB     52       POPC     H13B     HL       0.250000       1.00800           0
      6765 MEMB     52       POPC     H13C     HL       0.250000       1.00800           0
      6766 MEMB     52       POPC     C14      CTL5    -0.350000       12.0110           0
      6767 MEMB     52       POPC     H14A     HL       0.250000       1.00800           0
      6768 MEMB     52       POPC     H14B     HL       0.250000       1.00800           0
      6769 MEMB     52       POPC     H14C     HL       0.250000       1.00800           0
      6770 MEMB     52       POPC     C15      CTL5    -0.350000       12.0110           0
      6771 MEMB     52       POPC     H15A     HL       0.250000       1.00800           0
      6772 MEMB     52       POPC     H15B     HL       0.250000       1.00800           0
      6773 MEMB     52       POPC     H15C     HL       0.250000       1.00800           0
      6774 MEMB     52       POPC     C11      CTL2    -0.800000E-01   12.0110           0
      6775 MEMB     52       POPC     H11A     HAL2     0.900000E-01   1.00800           0
      6776 MEMB     52       POPC     H11B     HAL2     0.900000E-01   1.00800           0
      6777 MEMB     52       POPC     P        PL        1.50000       30.9740           0
      6778 MEMB     52       POPC     O13      O2L     -0.780000       15.9994           0
      6779 MEMB     52       POPC     O14      O2L     -0.780000       15.9994           0
      6780 MEMB     52       POPC     O12      OSLP    -0.570000       15.9994           0
      6781 MEMB     52       POPC     O11      OSLP    -0.570000       15.9994           0
      6782 MEMB     52       POPC     C1       CTL2    -0.800000E-01   12.0110           0
      6783 MEMB     52       POPC     HA       HAL2     0.900000E-01   1.00800           0
      6784 MEMB     52       POPC     HB       HAL2     0.900000E-01   1.00800           0
      6785 MEMB     52       POPC     C2       CTL1     0.170000       12.0110           0
      6786 MEMB     52       POPC     HS       HAL1     0.900000E-01   1.00800           0
      6787 MEMB     52       POPC     O21      OSL     -0.490000       15.9994           0
      6788 MEMB     52       POPC     C21      CL       0.900000       12.0110           0
      6789 MEMB     52       POPC     O22      OBL     -0.630000       15.9994           0
      6790 MEMB     52       POPC     C22      CTL2    -0.220000       12.0110           0
      6791 MEMB     52       POPC     H2R      HAL2     0.900000E-01   1.00800           0
      6792 MEMB     52       POPC     H2S      HAL2     0.900000E-01   1.00800           0
      6793 MEMB     52       POPC     C3       CTL2     0.800000E-01   12.0110           0
      6794 MEMB     52       POPC     HX       HAL2     0.900000E-01   1.00800           0
      6795 MEMB     52       POPC     HY       HAL2     0.900000E-01   1.00800           0
      6796 MEMB     52       POPC     O31      OSL     -0.490000       15.9994           0
      6797 MEMB     52       POPC     C31      CL       0.900000       12.0110           0
      6798 MEMB     52       POPC     O32      OBL     -0.630000       15.9994           0
      6799 MEMB     52       POPC     C32      CTL2    -0.220000       12.0110           0
      6800 MEMB     52       POPC     H2X      HAL2     0.900000E-01   1.00800           0
      6801 MEMB     52       POPC     H2Y      HAL2     0.900000E-01   1.00800           0
      6802 MEMB     52       POPC     C23      CTL2    -0.180000       12.0110           0
      6803 MEMB     52       POPC     H3R      HAL2     0.900000E-01   1.00800           0
      6804 MEMB     52       POPC     H3S      HAL2     0.900000E-01   1.00800           0
      6805 MEMB     52       POPC     C24      CTL2    -0.180000       12.0110           0
      6806 MEMB     52       POPC     H4R      HAL2     0.900000E-01   1.00800           0
      6807 MEMB     52       POPC     H4S      HAL2     0.900000E-01   1.00800           0
      6808 MEMB     52       POPC     C25      CTL2    -0.180000       12.0110           0
      6809 MEMB     52       POPC     H5R      HAL2     0.900000E-01   1.00800           0
      6810 MEMB     52       POPC     H5S      HAL2     0.900000E-01   1.00800           0
      6811 MEMB     52       POPC     C26      CTL2    -0.180000       12.0110           0
      6812 MEMB     52       POPC     H6R      HAL2     0.900000E-01   1.00800           0
      6813 MEMB     52       POPC     H6S      HAL2     0.900000E-01   1.00800           0
      6814 MEMB     52       POPC     C27      CTL2    -0.180000       12.0110           0
      6815 MEMB     52       POPC     H7R      HAL2     0.900000E-01   1.00800           0
      6816 MEMB     52       POPC     H7S      HAL2     0.900000E-01   1.00800           0
      6817 MEMB     52       POPC     C28      CTL2    -0.180000       12.0110           0
      6818 MEMB     52       POPC     H8R      HAL2     0.900000E-01   1.00800           0
      6819 MEMB     52       POPC     H8S      HAL2     0.900000E-01   1.00800           0
      6820 MEMB     52       POPC     C29      CEL1    -0.150000       12.0110           0
      6821 MEMB     52       POPC     H91      HEL1     0.150000       1.00800           0
      6822 MEMB     52       POPC     C210     CEL1    -0.150000       12.0110           0
      6823 MEMB     52       POPC     H101     HEL1     0.150000       1.00800           0
      6824 MEMB     52       POPC     C211     CTL2    -0.180000       12.0110           0
      6825 MEMB     52       POPC     H11R     HAL2     0.900000E-01   1.00800           0
      6826 MEMB     52       POPC     H11S     HAL2     0.900000E-01   1.00800           0
      6827 MEMB     52       POPC     C212     CTL2    -0.180000       12.0110           0
      6828 MEMB     52       POPC     H12R     HAL2     0.900000E-01   1.00800           0
      6829 MEMB     52       POPC     H12S     HAL2     0.900000E-01   1.00800           0
      6830 MEMB     52       POPC     C213     CTL2    -0.180000       12.0110           0
      6831 MEMB     52       POPC     H13R     HAL2     0.900000E-01   1.00800           0
      6832 MEMB     52       POPC     H13S     HAL2     0.900000E-01   1.00800           0
      6833 MEMB     52       POPC     C214     CTL2    -0.180000       12.0110           0
      6834 MEMB     52       POPC     H14R     HAL2     0.900000E-01   1.00800           0
      6835 MEMB     52       POPC     H14S     HAL2     0.900000E-01   1.00800           0
      6836 MEMB     52       POPC     C215     CTL2    -0.180000       12.0110           0
      6837 MEMB     52       POPC     H15R     HAL2     0.900000E-01   1.00800           0
      6838 MEMB     52       POPC     H15S     HAL2     0.900000E-01   1.00800           0
      6839 MEMB     52       POPC     C216     CTL2    -0.180000       12.0110           0
      6840 MEMB     52       POPC     H16R     HAL2     0.900000E-01   1.00800           0
      6841 MEMB     52       POPC     H16S     HAL2     0.900000E-01   1.00800           0
      6842 MEMB     52       POPC     C217     CTL2    -0.180000       12.0110           0
      6843 MEMB     52       POPC     H17R     HAL2     0.900000E-01   1.00800           0
      6844 MEMB     52       POPC     H17S     HAL2     0.900000E-01   1.00800           0
      6845 MEMB     52       POPC     C218     CTL3    -0.270000       12.0110           0
      6846 MEMB     52       POPC     H18R     HAL3     0.900000E-01   1.00800           0
      6847 MEMB     52       POPC     H18S     HAL3     0.900000E-01   1.00800           0
      6848 MEMB     52       POPC     H18T     HAL3     0.900000E-01   1.00800           0
      6849 MEMB     52       POPC     C33      CTL2    -0.180000       12.0110           0
      6850 MEMB     52       POPC     H3X      HAL2     0.900000E-01   1.00800           0
      6851 MEMB     52       POPC     H3Y      HAL2     0.900000E-01   1.00800           0
      6852 MEMB     52       POPC     C34      CTL2    -0.180000       12.0110           0
      6853 MEMB     52       POPC     H4X      HAL2     0.900000E-01   1.00800           0
      6854 MEMB     52       POPC     H4Y      HAL2     0.900000E-01   1.00800           0
      6855 MEMB     52       POPC     C35      CTL2    -0.180000       12.0110           0
      6856 MEMB     52       POPC     H5X      HAL2     0.900000E-01   1.00800           0
      6857 MEMB     52       POPC     H5Y      HAL2     0.900000E-01   1.00800           0
      6858 MEMB     52       POPC     C36      CTL2    -0.180000       12.0110           0
      6859 MEMB     52       POPC     H6X      HAL2     0.900000E-01   1.00800           0
      6860 MEMB     52       POPC     H6Y      HAL2     0.900000E-01   1.00800           0
      6861 MEMB     52       POPC     C37      CTL2    -0.180000       12.0110           0
      6862 MEMB     52       POPC     H7X      HAL2     0.900000E-01   1.00800           0
      6863 MEMB     52       POPC     H7Y      HAL2     0.900000E-01   1.00800           0
      6864 MEMB     52       POPC     C38      CTL2    -0.180000       12.0110           0
      6865 MEMB     52       POPC     H8X      HAL2     0.900000E-01   1.00800           0
      6866 MEMB     52       POPC     H8Y      HAL2     0.900000E-01   1.00800           0
      6867 MEMB     52       POPC     C39      CTL2    -0.180000       12.0110           0
      6868 MEMB     52       POPC     H9X      HAL2     0.900000E-01   1.00800           0
      6869 MEMB     52       POPC     H9Y      HAL2     0.900000E-01   1.00800           0
      6870 MEMB     52       POPC     C310     CTL2    -0.180000       12.0110           0
      6871 MEMB     52       POPC     H10X     HAL2     0.900000E-01   1.00800           0
      6872 MEMB     52       POPC     H10Y     HAL2     0.900000E-01   1.00800           0
      6873 MEMB     52       POPC     C311     CTL2    -0.180000       12.0110           0
      6874 MEMB     52       POPC     H11X     HAL2     0.900000E-01   1.00800           0
      6875 MEMB     52       POPC     H11Y     HAL2     0.900000E-01   1.00800           0
      6876 MEMB     52       POPC     C312     CTL2    -0.180000       12.0110           0
      6877 MEMB     52       POPC     H12X     HAL2     0.900000E-01   1.00800           0
      6878 MEMB     52       POPC     H12Y     HAL2     0.900000E-01   1.00800           0
      6879 MEMB     52       POPC     C313     CTL2    -0.180000       12.0110           0
      6880 MEMB     52       POPC     H13X     HAL2     0.900000E-01   1.00800           0
      6881 MEMB     52       POPC     H13Y     HAL2     0.900000E-01   1.00800           0
      6882 MEMB     52       POPC     C314     CTL2    -0.180000       12.0110           0
      6883 MEMB     52       POPC     H14X     HAL2     0.900000E-01   1.00800           0
      6884 MEMB     52       POPC     H14Y     HAL2     0.900000E-01   1.00800           0
      6885 MEMB     52       POPC     C315     CTL2    -0.180000       12.0110           0
      6886 MEMB     52       POPC     H15X     HAL2     0.900000E-01   1.00800           0
      6887 MEMB     52       POPC     H15Y     HAL2     0.900000E-01   1.00800           0
      6888 MEMB     52       POPC     C316     CTL3    -0.270000       12.0110           0
      6889 MEMB     52       POPC     H16X     HAL3     0.900000E-01   1.00800           0
      6890 MEMB     52       POPC     H16Y     HAL3     0.900000E-01   1.00800           0
      6891 MEMB     52       POPC     H16Z     HAL3     0.900000E-01   1.00800           0
      6892 MEMB     53       POPC     N        NTL     -0.600000       14.0070           0
      6893 MEMB     53       POPC     C12      CTL2    -0.100000       12.0110           0
      6894 MEMB     53       POPC     H12A     HL       0.250000       1.00800           0
      6895 MEMB     53       POPC     H12B     HL       0.250000       1.00800           0
      6896 MEMB     53       POPC     C13      CTL5    -0.350000       12.0110           0
      6897 MEMB     53       POPC     H13A     HL       0.250000       1.00800           0
      6898 MEMB     53       POPC     H13B     HL       0.250000       1.00800           0
      6899 MEMB     53       POPC     H13C     HL       0.250000       1.00800           0
      6900 MEMB     53       POPC     C14      CTL5    -0.350000       12.0110           0
      6901 MEMB     53       POPC     H14A     HL       0.250000       1.00800           0
      6902 MEMB     53       POPC     H14B     HL       0.250000       1.00800           0
      6903 MEMB     53       POPC     H14C     HL       0.250000       1.00800           0
      6904 MEMB     53       POPC     C15      CTL5    -0.350000       12.0110           0
      6905 MEMB     53       POPC     H15A     HL       0.250000       1.00800           0
      6906 MEMB     53       POPC     H15B     HL       0.250000       1.00800           0
      6907 MEMB     53       POPC     H15C     HL       0.250000       1.00800           0
      6908 MEMB     53       POPC     C11      CTL2    -0.800000E-01   12.0110           0
      6909 MEMB     53       POPC     H11A     HAL2     0.900000E-01   1.00800           0
      6910 MEMB     53       POPC     H11B     HAL2     0.900000E-01   1.00800           0
      6911 MEMB     53       POPC     P        PL        1.50000       30.9740           0
      6912 MEMB     53       POPC     O13      O2L     -0.780000       15.9994           0
      6913 MEMB     53       POPC     O14      O2L     -0.780000       15.9994           0
      6914 MEMB     53       POPC     O12      OSLP    -0.570000       15.9994           0
      6915 MEMB     53       POPC     O11      OSLP    -0.570000       15.9994           0
      6916 MEMB     53       POPC     C1       CTL2    -0.800000E-01   12.0110           0
      6917 MEMB     53       POPC     HA       HAL2     0.900000E-01   1.00800           0
      6918 MEMB     53       POPC     HB       HAL2     0.900000E-01   1.00800           0
      6919 MEMB     53       POPC     C2       CTL1     0.170000       12.0110           0
      6920 MEMB     53       POPC     HS       HAL1     0.900000E-01   1.00800           0
      6921 MEMB     53       POPC     O21      OSL     -0.490000       15.9994           0
      6922 MEMB     53       POPC     C21      CL       0.900000       12.0110           0
      6923 MEMB     53       POPC     O22      OBL     -0.630000       15.9994           0
      6924 MEMB     53       POPC     C22      CTL2    -0.220000       12.0110           0
      6925 MEMB     53       POPC     H2R      HAL2     0.900000E-01   1.00800           0
      6926 MEMB     53       POPC     H2S      HAL2     0.900000E-01   1.00800           0
      6927 MEMB     53       POPC     C3       CTL2     0.800000E-01   12.0110           0
      6928 MEMB     53       POPC     HX       HAL2     0.900000E-01   1.00800           0
      6929 MEMB     53       POPC     HY       HAL2     0.900000E-01   1.00800           0
      6930 MEMB     53       POPC     O31      OSL     -0.490000       15.9994           0
      6931 MEMB     53       POPC     C31      CL       0.900000       12.0110           0
      6932 MEMB     53       POPC     O32      OBL     -0.630000       15.9994           0
      6933 MEMB     53       POPC     C32      CTL2    -0.220000       12.0110           0
      6934 MEMB     53       POPC     H2X      HAL2     0.900000E-01   1.00800           0
      6935 MEMB     53       POPC     H2Y      HAL2     0.900000E-01   1.00800           0
      6936 MEMB     53       POPC     C23      CTL2    -0.180000       12.0110           0
      6937 MEMB     53       POPC     H3R      HAL2     0.900000E-01   1.00800           0
      6938 MEMB     53       POPC     H3S      HAL2     0.900000E-01   1.00800           0
      6939 MEMB     53       POPC     C24      CTL2    -0.180000       12.0110           0
      6940 MEMB     53       POPC     H4R      HAL2     0.900000E-01   1.00800           0
      6941 MEMB     53       POPC     H4S      HAL2     0.900000E-01   1.00800           0
      6942 MEMB     53       POPC     C25      CTL2    -0.180000       12.0110           0
      6943 MEMB     53       POPC     H5R      HAL2     0.900000E-01   1.00800           0
      6944 MEMB     53       POPC     H5S      HAL2     0.900000E-01   1.00800           0
      6945 MEMB     53       POPC     C26      CTL2    -0.180000       12.0110           0
      6946 MEMB     53       POPC     H6R      HAL2     0.900000E-01   1.00800           0
      6947 MEMB     53       POPC     H6S      HAL2     0.900000E-01   1.00800           0
      6948 MEMB     53       POPC     C27      CTL2    -0.180000       12.0110           0
      6949 MEMB     53       POPC     H7R      HAL2     0.900000E-01   1.00800           0
      6950 MEMB     53       POPC     H7S      HAL2     0.900000E-01   1.00800           0
      6951 MEMB     53       POPC     C28      CTL2    -0.180000       12.0110           0
      6952 MEMB     53       POPC     H8R      HAL2     0.900000E-01   1.00800           0
      6953 MEMB     53       POPC     H8S      HAL2     0.900000E-01   1.00800           0
      6954 MEMB     53       POPC     C29      CEL1    -0.150000       12.0110           0
      6955 MEMB     53       POPC     H91      HEL1     0.150000       1.00800           0
      6956 MEMB     53       POPC     C210     CEL1    -0.150000       12.0110           0
      6957 MEMB     53       POPC     H101     HEL1     0.150000       1.00800           0
      6958 MEMB     53       POPC     C211     CTL2    -0.180000       12.0110           0
      6959 MEMB     53       POPC     H11R     HAL2     0.900000E-01   1.00800           0
      6960 MEMB     53       POPC     H11S     HAL2     0.900000E-01   1.00800           0
      6961 MEMB     53       POPC     C212     CTL2    -0.180000       12.0110           0
      6962 MEMB     53       POPC     H12R     HAL2     0.900000E-01   1.00800           0
      6963 MEMB     53       POPC     H12S     HAL2     0.900000E-01   1.00800           0
      6964 MEMB     53       POPC     C213     CTL2    -0.180000       12.0110           0
      6965 MEMB     53       POPC     H13R     HAL2     0.900000E-01   1.00800           0
      6966 MEMB     53       POPC     H13S     HAL2     0.900000E-01   1.00800           0
      6967 MEMB     53       POPC     C214     CTL2    -0.180000       12.0110           0
      6968 MEMB     53       POPC     H14R     HAL2     0.900000E-01   1.00800           0
      6969 MEMB     53       POPC     H14S     HAL2     0.900000E-01   1.00800           0
      6970 MEMB     53       POPC     C215     CTL2    -0.180000       12.0110           0
      6971 MEMB     53       POPC     H15R     HAL2     0.900000E-01   1.00800           0
      6972 MEMB     53       POPC     H15S     HAL2     0.900000E-01   1.00800           0
      6973 MEMB     53       POPC     C216     CTL2    -0.180000       12.0110           0
      6974 MEMB     53       POPC     H16R     HAL2     0.900000E-01   1.00800           0
      6975 MEMB     53       POPC     H16S     HAL2     0.900000E-01   1.00800           0
      6976 MEMB     53       POPC     C217     CTL2    -0.180000       12.0110           0
      6977 MEMB     53       POPC     H17R     HAL2     0.900000E-01   1.00800           0
      6978 MEMB     53       POPC     H17S     HAL2     0.900000E-01   1.00800           0
      6979 MEMB     53       POPC     C218     CTL3    -0.270000       12.0110           0
      6980 MEMB     53       POPC     H18R     HAL3     0.900000E-01   1.00800           0
      6981 MEMB     53       POPC     H18S     HAL3     0.900000E-01   1.00800           0
      6982 MEMB     53       POPC     H18T     HAL3     0.900000E-01   1.00800           0
      6983 MEMB     53       POPC     C33      CTL2    -0.180000       12.0110           0
      6984 MEMB     53       POPC     H3X      HAL2     0.900000E-01   1.00800           0
      6985 MEMB     53       POPC     H3Y      HAL2     0.900000E-01   1.00800           0
      6986 MEMB     53       POPC     C34      CTL2    -0.180000       12.0110           0
      6987 MEMB     53       POPC     H4X      HAL2     0.900000E-01   1.00800           0
      6988 MEMB     53       POPC     H4Y      HAL2     0.900000E-01   1.00800           0
      6989 MEMB     53       POPC     C35      CTL2    -0.180000       12.0110           0
      6990 MEMB     53       POPC     H5X      HAL2     0.900000E-01   1.00800           0
      6991 MEMB     53       POPC     H5Y      HAL2     0.900000E-01   1.00800           0
      6992 MEMB     53       POPC     C36      CTL2    -0.180000       12.0110           0
      6993 MEMB     53       POPC     H6X      HAL2     0.900000E-01   1.00800           0
      6994 MEMB     53       POPC     H6Y      HAL2     0.900000E-01   1.00800           0
      6995 MEMB     53       POPC     C37      CTL2    -0.180000       12.0110           0
      6996 MEMB     53       POPC     H7X      HAL2     0.900000E-01   1.00800           0
      6997 MEMB     53       POPC     H7Y      HAL2     0.900000E-01   1.00800           0
      6998 MEMB     53       POPC     C38      CTL2    -0.180000       12.0110           0
      6999 MEMB     53       POPC     H8X      HAL2     0.900000E-01   1.00800           0
      7000 MEMB     53       POPC     H8Y      HAL2     0.900000E-01   1.00800           0
      7001 MEMB     53       POPC     C39      CTL2    -0.180000       12.0110           0
      7002 MEMB     53       POPC     H9X      HAL2     0.900000E-01   1.00800           0
      7003 MEMB     53       POPC     H9Y      HAL2     0.900000E-01   1.00800           0
      7004 MEMB     53       POPC     C310     CTL2    -0.180000       12.0110           0
      7005 MEMB     53       POPC     H10X     HAL2     0.900000E-01   1.00800           0
      7006 MEMB     53       POPC     H10Y     HAL2     0.900000E-01   1.00800           0
      7007 MEMB     53       POPC     C311     CTL2    -0.180000       12.0110           0
      7008 MEMB     53       POPC     H11X     HAL2     0.900000E-01   1.00800           0
      7009 MEMB     53       POPC     H11Y     HAL2     0.900000E-01   1.00800           0
      7010 MEMB     53       POPC     C312     CTL2    -0.180000       12.0110           0
      7011 MEMB     53       POPC     H12X     HAL2     0.900000E-01   1.00800           0
      7012 MEMB     53       POPC     H12Y     HAL2     0.900000E-01   1.00800           0
      7013 MEMB     53       POPC     C313     CTL2    -0.180000       12.0110           0
      7014 MEMB     53       POPC     H13X     HAL2     0.900000E-01   1.00800           0
      7015 MEMB     53       POPC     H13Y     HAL2     0.900000E-01   1.00800           0
      7016 MEMB     53       POPC     C314     CTL2    -0.180000       12.0110           0
      7017 MEMB     53       POPC     H14X     HAL2     0.900000E-01   1.00800           0
      7018 MEMB     53       POPC     H14Y     HAL2     0.900000E-01   1.00800           0
      7019 MEMB     53       POPC     C315     CTL2    -0.180000       12.0110           0
      7020 MEMB     53       POPC     H15X     HAL2     0.900000E-01   1.00800           0
      7021 MEMB     53       POPC     H15Y     HAL2     0.900000E-01   1.00800           0
      7022 MEMB     53       POPC     C316     CTL3    -0.270000       12.0110           0
      7023 MEMB     53       POPC     H16X     HAL3     0.900000E-01   1.00800           0
      7024 MEMB     53       POPC     H16Y     HAL3     0.900000E-01   1.00800           0
      7025 MEMB     53       POPC     H16Z     HAL3     0.900000E-01   1.00800           0
      7026 MEMB     54       POPS     N        NH3L    -0.300000       14.0070           0
      7027 MEMB     54       POPS     HN1      HCL      0.330000       1.00800           0
      7028 MEMB     54       POPS     HN2      HCL      0.330000       1.00800           0
      7029 MEMB     54       POPS     HN3      HCL      0.330000       1.00800           0
      7030 MEMB     54       POPS     C12      CTL1     0.210000       12.0110           0
      7031 MEMB     54       POPS     H12A     HBL      0.100000       1.00800           0
      7032 MEMB     54       POPS     C13      CCL      0.340000       12.0110           0
      7033 MEMB     54       POPS     O13A     OCL     -0.670000       15.9994           0
      7034 MEMB     54       POPS     O13B     OCL     -0.670000       15.9994           0
      7035 MEMB     54       POPS     C11      CTL2    -0.800000E-01   12.0110           0
      7036 MEMB     54       POPS     H11A     HAL2     0.900000E-01   1.00800           0
      7037 MEMB     54       POPS     H11B     HAL2     0.900000E-01   1.00800           0
      7038 MEMB     54       POPS     P        PL        1.50000       30.9740           0
      7039 MEMB     54       POPS     O13      O2L     -0.780000       15.9994           0
      7040 MEMB     54       POPS     O14      O2L     -0.780000       15.9994           0
      7041 MEMB     54       POPS     O12      OSLP    -0.570000       15.9994           0
      7042 MEMB     54       POPS     O11      OSLP    -0.570000       15.9994           0
      7043 MEMB     54       POPS     C1       CTL2    -0.800000E-01   12.0110           0
      7044 MEMB     54       POPS     HA       HAL2     0.900000E-01   1.00800           0
      7045 MEMB     54       POPS     HB       HAL2     0.900000E-01   1.00800           0
      7046 MEMB     54       POPS     C2       CTL1     0.170000       12.0110           0
      7047 MEMB     54       POPS     HS       HAL1     0.900000E-01   1.00800           0
      7048 MEMB     54       POPS     O21      OSL     -0.490000       15.9994           0
      7049 MEMB     54       POPS     C21      CL       0.900000       12.0110           0
      7050 MEMB     54       POPS     O22      OBL     -0.630000       15.9994           0
      7051 MEMB     54       POPS     C22      CTL2    -0.220000       12.0110           0
      7052 MEMB     54       POPS     H2R      HAL2     0.900000E-01   1.00800           0
      7053 MEMB     54       POPS     H2S      HAL2     0.900000E-01   1.00800           0
      7054 MEMB     54       POPS     C3       CTL2     0.800000E-01   12.0110           0
      7055 MEMB     54       POPS     HX       HAL2     0.900000E-01   1.00800           0
      7056 MEMB     54       POPS     HY       HAL2     0.900000E-01   1.00800           0
      7057 MEMB     54       POPS     O31      OSL     -0.490000       15.9994           0
      7058 MEMB     54       POPS     C31      CL       0.900000       12.0110           0
      7059 MEMB     54       POPS     O32      OBL     -0.630000       15.9994           0
      7060 MEMB     54       POPS     C32      CTL2    -0.220000       12.0110           0
      7061 MEMB     54       POPS     H2X      HAL2     0.900000E-01   1.00800           0
      7062 MEMB     54       POPS     H2Y      HAL2     0.900000E-01   1.00800           0
      7063 MEMB     54       POPS     C23      CTL2    -0.180000       12.0110           0
      7064 MEMB     54       POPS     H3R      HAL2     0.900000E-01   1.00800           0
      7065 MEMB     54       POPS     H3S      HAL2     0.900000E-01   1.00800           0
      7066 MEMB     54       POPS     C24      CTL2    -0.180000       12.0110           0
      7067 MEMB     54       POPS     H4R      HAL2     0.900000E-01   1.00800           0
      7068 MEMB     54       POPS     H4S      HAL2     0.900000E-01   1.00800           0
      7069 MEMB     54       POPS     C25      CTL2    -0.180000       12.0110           0
      7070 MEMB     54       POPS     H5R      HAL2     0.900000E-01   1.00800           0
      7071 MEMB     54       POPS     H5S      HAL2     0.900000E-01   1.00800           0
      7072 MEMB     54       POPS     C26      CTL2    -0.180000       12.0110           0
      7073 MEMB     54       POPS     H6R      HAL2     0.900000E-01   1.00800           0
      7074 MEMB     54       POPS     H6S      HAL2     0.900000E-01   1.00800           0
      7075 MEMB     54       POPS     C27      CTL2    -0.180000       12.0110           0
      7076 MEMB     54       POPS     H7R      HAL2     0.900000E-01   1.00800           0
      7077 MEMB     54       POPS     H7S      HAL2     0.900000E-01   1.00800           0
      7078 MEMB     54       POPS     C28      CTL2    -0.180000       12.0110           0
      7079 MEMB     54       POPS     H8R      HAL2     0.900000E-01   1.00800           0
      7080 MEMB     54       POPS     H8S      HAL2     0.900000E-01   1.00800           0
      7081 MEMB     54       POPS     C29      CEL1    -0.150000       12.0110           0
      7082 MEMB     54       POPS     H91      HEL1     0.150000       1.00800           0
      7083 MEMB     54       POPS     C210     CEL1    -0.150000       12.0110           0
      7084 MEMB     54       POPS     H101     HEL1     0.150000       1.00800           0
      7085 MEMB     54       POPS     C211     CTL2    -0.180000       12.0110           0
      7086 MEMB     54       POPS     H11R     HAL2     0.900000E-01   1.00800           0
      7087 MEMB     54       POPS     H11S     HAL2     0.900000E-01   1.00800           0
      7088 MEMB     54       POPS     C212     CTL2    -0.180000       12.0110           0
      7089 MEMB     54       POPS     H12R     HAL2     0.900000E-01   1.00800           0
      7090 MEMB     54       POPS     H12S     HAL2     0.900000E-01   1.00800           0
      7091 MEMB     54       POPS     C213     CTL2    -0.180000       12.0110           0
      7092 MEMB     54       POPS     H13R     HAL2     0.900000E-01   1.00800           0
      7093 MEMB     54       POPS     H13S     HAL2     0.900000E-01   1.00800           0
      7094 MEMB     54       POPS     C214     CTL2    -0.180000       12.0110           0
      7095 MEMB     54       POPS     H14R     HAL2     0.900000E-01   1.00800           0
      7096 MEMB     54       POPS     H14S     HAL2     0.900000E-01   1.00800           0
      7097 MEMB     54       POPS     C215     CTL2    -0.180000       12.0110           0
      7098 MEMB     54       POPS     H15R     HAL2     0.900000E-01   1.00800           0
      7099 MEMB     54       POPS     H15S     HAL2     0.900000E-01   1.00800           0
      7100 MEMB     54       POPS     C216     CTL2    -0.180000       12.0110           0
      7101 MEMB     54       POPS     H16R     HAL2     0.900000E-01   1.00800           0
      7102 MEMB     54       POPS     H16S     HAL2     0.900000E-01   1.00800           0
      7103 MEMB     54       POPS     C217     CTL2    -0.180000       12.0110           0
      7104 MEMB     54       POPS     H17R     HAL2     0.900000E-01   1.00800           0
      7105 MEMB     54       POPS     H17S     HAL2     0.900000E-01   1.00800           0
      7106 MEMB     54       POPS     C218     CTL3    -0.270000       12.0110           0
      7107 MEMB     54       POPS     H18R     HAL3     0.900000E-01   1.00800           0
      7108 MEMB     54       POPS     H18S     HAL3     0.900000E-01   1.00800           0
      7109 MEMB     54       POPS     H18T     HAL3     0.900000E-01   1.00800           0
      7110 MEMB     54       POPS     C33      CTL2    -0.180000       12.0110           0
      7111 MEMB     54       POPS     H3X      HAL2     0.900000E-01   1.00800           0
      7112 MEMB     54       POPS     H3Y      HAL2     0.900000E-01   1.00800           0
      7113 MEMB     54       POPS     C34      CTL2    -0.180000       12.0110           0
      7114 MEMB     54       POPS     H4X      HAL2     0.900000E-01   1.00800           0
      7115 MEMB     54       POPS     H4Y      HAL2     0.900000E-01   1.00800           0
      7116 MEMB     54       POPS     C35      CTL2    -0.180000       12.0110           0
      7117 MEMB     54       POPS     H5X      HAL2     0.900000E-01   1.00800           0
      7118 MEMB     54       POPS     H5Y      HAL2     0.900000E-01   1.00800           0
      7119 MEMB     54       POPS     C36      CTL2    -0.180000       12.0110           0
      7120 MEMB     54       POPS     H6X      HAL2     0.900000E-01   1.00800           0
      7121 MEMB     54       POPS     H6Y      HAL2     0.900000E-01   1.00800           0
      7122 MEMB     54       POPS     C37      CTL2    -0.180000       12.0110           0
      7123 MEMB     54       POPS     H7X      HAL2     0.900000E-01   1.00800           0
      7124 MEMB     54       POPS     H7Y      HAL2     0.900000E-01   1.00800           0
      7125 MEMB     54       POPS     C38      CTL2    -0.180000       12.0110           0
      7126 MEMB     54       POPS     H8X      HAL2     0.900000E-01   1.00800           0
      7127 MEMB     54       POPS     H8Y      HAL2     0.900000E-01   1.00800           0
      7128 MEMB     54       POPS     C39      CTL2    -0.180000       12.0110           0
      7129 MEMB     54       POPS     H9X      HAL2     0.900000E-01   1.00800           0
      7130 MEMB     54       POPS     H9Y      HAL2     0.900000E-01   1.00800           0
      7131 MEMB     54       POPS     C310     CTL2    -0.180000       12.0110           0
      7132 MEMB     54       POPS     H10X     HAL2     0.900000E-01   1.00800           0
      7133 MEMB     54       POPS     H10Y     HAL2     0.900000E-01   1.00800           0
      7134 MEMB     54       POPS     C311     CTL2    -0.180000       12.0110           0
      7135 MEMB     54       POPS     H11X     HAL2     0.900000E-01   1.00800           0
      7136 MEMB     54       POPS     H11Y     HAL2     0.900000E-01   1.00800           0
      7137 MEMB     54       POPS     C312     CTL2    -0.180000       12.0110           0
      7138 MEMB     54       POPS     H12X     HAL2     0.900000E-01   1.00800           0
      7139 MEMB     54       POPS     H12Y     HAL2     0.900000E-01   1.00800           0
      7140 MEMB     54       POPS     C313     CTL2    -0.180000       12.0110           0
      7141 MEMB     54       POPS     H13X     HAL2     0.900000E-01   1.00800           0
      7142 MEMB     54       POPS     H13Y     HAL2     0.900000E-01   1.00800           0
      7143 MEMB     54       POPS     C314     CTL2    -0.180000       12.0110           0
      7144 MEMB     54       POPS     H14X     HAL2     0.900000E-01   1.00800           0
      7145 MEMB     54       POPS     H14Y     HAL2     0.900000E-01   1.00800           0
      7146 MEMB     54       POPS     C315     CTL2    -0.180000       12.0110           0
      7147 MEMB     54       POPS     H15X     HAL2     0.900000E-01   1.00800           0
      7148 MEMB     54       POPS     H15Y     HAL2     0.900000E-01   1.00800           0
      7149 MEMB     54       POPS     C316     CTL3    -0.270000       12.0110           0
      7150 MEMB     54       POPS     H16X     HAL3     0.900000E-01   1.00800           0
      7151 MEMB     54       POPS     H16Y     HAL3     0.900000E-01   1.00800           0
      7152 MEMB     54       POPS     H16Z     HAL3     0.900000E-01   1.00800           0
      7153 MEMB     55       POPC     N        NTL     -0.600000       14.0070           0
      7154 MEMB     55       POPC     C12      CTL2    -0.100000       12.0110           0
      7155 MEMB     55       POPC     H12A     HL       0.250000       1.00800           0
      7156 MEMB     55       POPC     H12B     HL       0.250000       1.00800           0
      7157 MEMB     55       POPC     C13      CTL5    -0.350000       12.0110           0
      7158 MEMB     55       POPC     H13A     HL       0.250000       1.00800           0
      7159 MEMB     55       POPC     H13B     HL       0.250000       1.00800           0
      7160 MEMB     55       POPC     H13C     HL       0.250000       1.00800           0
      7161 MEMB     55       POPC     C14      CTL5    -0.350000       12.0110           0
      7162 MEMB     55       POPC     H14A     HL       0.250000       1.00800           0
      7163 MEMB     55       POPC     H14B     HL       0.250000       1.00800           0
      7164 MEMB     55       POPC     H14C     HL       0.250000       1.00800           0
      7165 MEMB     55       POPC     C15      CTL5    -0.350000       12.0110           0
      7166 MEMB     55       POPC     H15A     HL       0.250000       1.00800           0
      7167 MEMB     55       POPC     H15B     HL       0.250000       1.00800           0
      7168 MEMB     55       POPC     H15C     HL       0.250000       1.00800           0
      7169 MEMB     55       POPC     C11      CTL2    -0.800000E-01   12.0110           0
      7170 MEMB     55       POPC     H11A     HAL2     0.900000E-01   1.00800           0
      7171 MEMB     55       POPC     H11B     HAL2     0.900000E-01   1.00800           0
      7172 MEMB     55       POPC     P        PL        1.50000       30.9740           0
      7173 MEMB     55       POPC     O13      O2L     -0.780000       15.9994           0
      7174 MEMB     55       POPC     O14      O2L     -0.780000       15.9994           0
      7175 MEMB     55       POPC     O12      OSLP    -0.570000       15.9994           0
      7176 MEMB     55       POPC     O11      OSLP    -0.570000       15.9994           0
      7177 MEMB     55       POPC     C1       CTL2    -0.800000E-01   12.0110           0
      7178 MEMB     55       POPC     HA       HAL2     0.900000E-01   1.00800           0
      7179 MEMB     55       POPC     HB       HAL2     0.900000E-01   1.00800           0
      7180 MEMB     55       POPC     C2       CTL1     0.170000       12.0110           0
      7181 MEMB     55       POPC     HS       HAL1     0.900000E-01   1.00800           0
      7182 MEMB     55       POPC     O21      OSL     -0.490000       15.9994           0
      7183 MEMB     55       POPC     C21      CL       0.900000       12.0110           0
      7184 MEMB     55       POPC     O22      OBL     -0.630000       15.9994           0
      7185 MEMB     55       POPC     C22      CTL2    -0.220000       12.0110           0
      7186 MEMB     55       POPC     H2R      HAL2     0.900000E-01   1.00800           0
      7187 MEMB     55       POPC     H2S      HAL2     0.900000E-01   1.00800           0
      7188 MEMB     55       POPC     C3       CTL2     0.800000E-01   12.0110           0
      7189 MEMB     55       POPC     HX       HAL2     0.900000E-01   1.00800           0
      7190 MEMB     55       POPC     HY       HAL2     0.900000E-01   1.00800           0
      7191 MEMB     55       POPC     O31      OSL     -0.490000       15.9994           0
      7192 MEMB     55       POPC     C31      CL       0.900000       12.0110           0
      7193 MEMB     55       POPC     O32      OBL     -0.630000       15.9994           0
      7194 MEMB     55       POPC     C32      CTL2    -0.220000       12.0110           0
      7195 MEMB     55       POPC     H2X      HAL2     0.900000E-01   1.00800           0
      7196 MEMB     55       POPC     H2Y      HAL2     0.900000E-01   1.00800           0
      7197 MEMB     55       POPC     C23      CTL2    -0.180000       12.0110           0
      7198 MEMB     55       POPC     H3R      HAL2     0.900000E-01   1.00800           0
      7199 MEMB     55       POPC     H3S      HAL2     0.900000E-01   1.00800           0
      7200 MEMB     55       POPC     C24      CTL2    -0.180000       12.0110           0
      7201 MEMB     55       POPC     H4R      HAL2     0.900000E-01   1.00800           0
      7202 MEMB     55       POPC     H4S      HAL2     0.900000E-01   1.00800           0
      7203 MEMB     55       POPC     C25      CTL2    -0.180000       12.0110           0
      7204 MEMB     55       POPC     H5R      HAL2     0.900000E-01   1.00800           0
      7205 MEMB     55       POPC     H5S      HAL2     0.900000E-01   1.00800           0
      7206 MEMB     55       POPC     C26      CTL2    -0.180000       12.0110           0
      7207 MEMB     55       POPC     H6R      HAL2     0.900000E-01   1.00800           0
      7208 MEMB     55       POPC     H6S      HAL2     0.900000E-01   1.00800           0
      7209 MEMB     55       POPC     C27      CTL2    -0.180000       12.0110           0
      7210 MEMB     55       POPC     H7R      HAL2     0.900000E-01   1.00800           0
      7211 MEMB     55       POPC     H7S      HAL2     0.900000E-01   1.00800           0
      7212 MEMB     55       POPC     C28      CTL2    -0.180000       12.0110           0
      7213 MEMB     55       POPC     H8R      HAL2     0.900000E-01   1.00800           0
      7214 MEMB     55       POPC     H8S      HAL2     0.900000E-01   1.00800           0
      7215 MEMB     55       POPC     C29      CEL1    -0.150000       12.0110           0
      7216 MEMB     55       POPC     H91      HEL1     0.150000       1.00800           0
      7217 MEMB     55       POPC     C210     CEL1    -0.150000       12.0110           0
      7218 MEMB     55       POPC     H101     HEL1     0.150000       1.00800           0
      7219 MEMB     55       POPC     C211     CTL2    -0.180000       12.0110           0
      7220 MEMB     55       POPC     H11R     HAL2     0.900000E-01   1.00800           0
      7221 MEMB     55       POPC     H11S     HAL2     0.900000E-01   1.00800           0
      7222 MEMB     55       POPC     C212     CTL2    -0.180000       12.0110           0
      7223 MEMB     55       POPC     H12R     HAL2     0.900000E-01   1.00800           0
      7224 MEMB     55       POPC     H12S     HAL2     0.900000E-01   1.00800           0
      7225 MEMB     55       POPC     C213     CTL2    -0.180000       12.0110           0
      7226 MEMB     55       POPC     H13R     HAL2     0.900000E-01   1.00800           0
      7227 MEMB     55       POPC     H13S     HAL2     0.900000E-01   1.00800           0
      7228 MEMB     55       POPC     C214     CTL2    -0.180000       12.0110           0
      7229 MEMB     55       POPC     H14R     HAL2     0.900000E-01   1.00800           0
      7230 MEMB     55       POPC     H14S     HAL2     0.900000E-01   1.00800           0
      7231 MEMB     55       POPC     C215     CTL2    -0.180000       12.0110           0
      7232 MEMB     55       POPC     H15R     HAL2     0.900000E-01   1.00800           0
      7233 MEMB     55       POPC     H15S     HAL2     0.900000E-01   1.00800           0
      7234 MEMB     55       POPC     C216     CTL2    -0.180000       12.0110           0
      7235 MEMB     55       POPC     H16R     HAL2     0.900000E-01   1.00800           0
      7236 MEMB     55       POPC     H16S     HAL2     0.900000E-01   1.00800           0
      7237 MEMB     55       POPC     C217     CTL2    -0.180000       12.0110           0
      7238 MEMB     55       POPC     H17R     HAL2     0.900000E-01   1.00800           0
      7239 MEMB     55       POPC     H17S     HAL2     0.900000E-01   1.00800           0
      7240 MEMB     55       POPC     C218     CTL3    -0.270000       12.0110           0
      7241 MEMB     55       POPC     H18R     HAL3     0.900000E-01   1.00800           0
      7242 MEMB     55       POPC     H18S     HAL3     0.900000E-01   1.00800           0
      7243 MEMB     55       POPC     H18T     HAL3     0.900000E-01   1.00800           0
      7244 MEMB     55       POPC     C33      CTL2    -0.180000       12.0110           0
      7245 MEMB     55       POPC     H3X      HAL2     0.900000E-01   1.00800           0
      7246 MEMB     55       POPC     H3Y      HAL2     0.900000E-01   1.00800           0
      7247 MEMB     55       POPC     C34      CTL2    -0.180000       12.0110           0
      7248 MEMB     55       POPC     H4X      HAL2     0.900000E-01   1.00800           0
      7249 MEMB     55       POPC     H4Y      HAL2     0.900000E-01   1.00800           0
      7250 MEMB     55       POPC     C35      CTL2    -0.180000       12.0110           0
      7251 MEMB     55       POPC     H5X      HAL2     0.900000E-01   1.00800           0
      7252 MEMB     55       POPC     H5Y      HAL2     0.900000E-01   1.00800           0
      7253 MEMB     55       POPC     C36      CTL2    -0.180000       12.0110           0
      7254 MEMB     55       POPC     H6X      HAL2     0.900000E-01   1.00800           0
      7255 MEMB     55       POPC     H6Y      HAL2     0.900000E-01   1.00800           0
      7256 MEMB     55       POPC     C37      CTL2    -0.180000       12.0110           0
      7257 MEMB     55       POPC     H7X      HAL2     0.900000E-01   1.00800           0
      7258 MEMB     55       POPC     H7Y      HAL2     0.900000E-01   1.00800           0
      7259 MEMB     55       POPC     C38      CTL2    -0.180000       12.0110           0
      7260 MEMB     55       POPC     H8X      HAL2     0.900000E-01   1.00800           0
      7261 MEMB     55       POPC     H8Y      HAL2     0.900000E-01   1.00800           0
      7262 MEMB     55       POPC     C39      CTL2    -0.180000       12.0110           0
      7263 MEMB     55       POPC     H9X      HAL2     0.900000E-01   1.00800           0
      7264 MEMB     55       POPC     H9Y      HAL2     0.900000E-01   1.00800           0
      7265 MEMB     55       POPC     C310     CTL2    -0.180000       12.0110           0
      7266 MEMB     55       POPC     H10X     HAL2     0.900000E-01   1.00800           0
      7267 MEMB     55       POPC     H10Y     HAL2     0.900000E-01   1.00800           0
      7268 MEMB     55       POPC     C311     CTL2    -0.180000       12.0110           0
      7269 MEMB     55       POPC     H11X     HAL2     0.900000E-01   1.00800           0
      7270 MEMB     55       POPC     H11Y     HAL2     0.900000E-01   1.00800           0
      7271 MEMB     55       POPC     C312     CTL2    -0.180000       12.0110           0
      7272 MEMB     55       POPC     H12X     HAL2     0.900000E-01   1.00800           0
      7273 MEMB     55       POPC     H12Y     HAL2     0.900000E-01   1.00800           0
      7274 MEMB     55       POPC     C313     CTL2    -0.180000       12.0110           0
      7275 MEMB     55       POPC     H13X     HAL2     0.900000E-01   1.00800           0
      7276 MEMB     55       POPC     H13Y     HAL2     0.900000E-01   1.00800           0
      7277 MEMB     55       POPC     C314     CTL2    -0.180000       12.0110           0
      7278 MEMB     55       POPC     H14X     HAL2     0.900000E-01   1.00800           0
      7279 MEMB     55       POPC     H14Y     HAL2     0.900000E-01   1.00800           0
      7280 MEMB     55       POPC     C315     CTL2    -0.180000       12.0110           0
      7281 MEMB     55       POPC     H15X     HAL2     0.900000E-01   1.00800           0
      7282 MEMB     55       POPC     H15Y     HAL2     0.900000E-01   1.00800           0
      7283 MEMB     55       POPC     C316     CTL3    -0.270000       12.0110           0
      7284 MEMB     55       POPC     H16X     HAL3     0.900000E-01   1.00800           0
      7285 MEMB     55       POPC     H16Y     HAL3     0.900000E-01   1.00800           0
      7286 MEMB     55       POPC     H16Z     HAL3     0.900000E-01   1.00800           0
      7287 MEMB     56       POPC     N        NTL     -0.600000       14.0070           0
      7288 MEMB     56       POPC     C12      CTL2    -0.100000       12.0110           0
      7289 MEMB     56       POPC     H12A     HL       0.250000       1.00800           0
      7290 MEMB     56       POPC     H12B     HL       0.250000       1.00800           0
      7291 MEMB     56       POPC     C13      CTL5    -0.350000       12.0110           0
      7292 MEMB     56       POPC     H13A     HL       0.250000       1.00800           0
      7293 MEMB     56       POPC     H13B     HL       0.250000       1.00800           0
      7294 MEMB     56       POPC     H13C     HL       0.250000       1.00800           0
      7295 MEMB     56       POPC     C14      CTL5    -0.350000       12.0110           0
      7296 MEMB     56       POPC     H14A     HL       0.250000       1.00800           0
      7297 MEMB     56       POPC     H14B     HL       0.250000       1.00800           0
      7298 MEMB     56       POPC     H14C     HL       0.250000       1.00800           0
      7299 MEMB     56       POPC     C15      CTL5    -0.350000       12.0110           0
      7300 MEMB     56       POPC     H15A     HL       0.250000       1.00800           0
      7301 MEMB     56       POPC     H15B     HL       0.250000       1.00800           0
      7302 MEMB     56       POPC     H15C     HL       0.250000       1.00800           0
      7303 MEMB     56       POPC     C11      CTL2    -0.800000E-01   12.0110           0
      7304 MEMB     56       POPC     H11A     HAL2     0.900000E-01   1.00800           0
      7305 MEMB     56       POPC     H11B     HAL2     0.900000E-01   1.00800           0
      7306 MEMB     56       POPC     P        PL        1.50000       30.9740           0
      7307 MEMB     56       POPC     O13      O2L     -0.780000       15.9994           0
      7308 MEMB     56       POPC     O14      O2L     -0.780000       15.9994           0
      7309 MEMB     56       POPC     O12      OSLP    -0.570000       15.9994           0
      7310 MEMB     56       POPC     O11      OSLP    -0.570000       15.9994           0
      7311 MEMB     56       POPC     C1       CTL2    -0.800000E-01   12.0110           0
      7312 MEMB     56       POPC     HA       HAL2     0.900000E-01   1.00800           0
      7313 MEMB     56       POPC     HB       HAL2     0.900000E-01   1.00800           0
      7314 MEMB     56       POPC     C2       CTL1     0.170000       12.0110           0
      7315 MEMB     56       POPC     HS       HAL1     0.900000E-01   1.00800           0
      7316 MEMB     56       POPC     O21      OSL     -0.490000       15.9994           0
      7317 MEMB     56       POPC     C21      CL       0.900000       12.0110           0
      7318 MEMB     56       POPC     O22      OBL     -0.630000       15.9994           0
      7319 MEMB     56       POPC     C22      CTL2    -0.220000       12.0110           0
      7320 MEMB     56       POPC     H2R      HAL2     0.900000E-01   1.00800           0
      7321 MEMB     56       POPC     H2S      HAL2     0.900000E-01   1.00800           0
      7322 MEMB     56       POPC     C3       CTL2     0.800000E-01   12.0110           0
      7323 MEMB     56       POPC     HX       HAL2     0.900000E-01   1.00800           0
      7324 MEMB     56       POPC     HY       HAL2     0.900000E-01   1.00800           0
      7325 MEMB     56       POPC     O31      OSL     -0.490000       15.9994           0
      7326 MEMB     56       POPC     C31      CL       0.900000       12.0110           0
      7327 MEMB     56       POPC     O32      OBL     -0.630000       15.9994           0
      7328 MEMB     56       POPC     C32      CTL2    -0.220000       12.0110           0
      7329 MEMB     56       POPC     H2X      HAL2     0.900000E-01   1.00800           0
      7330 MEMB     56       POPC     H2Y      HAL2     0.900000E-01   1.00800           0
      7331 MEMB     56       POPC     C23      CTL2    -0.180000       12.0110           0
      7332 MEMB     56       POPC     H3R      HAL2     0.900000E-01   1.00800           0
      7333 MEMB     56       POPC     H3S      HAL2     0.900000E-01   1.00800           0
      7334 MEMB     56       POPC     C24      CTL2    -0.180000       12.0110           0
      7335 MEMB     56       POPC     H4R      HAL2     0.900000E-01   1.00800           0
      7336 MEMB     56       POPC     H4S      HAL2     0.900000E-01   1.00800           0
      7337 MEMB     56       POPC     C25      CTL2    -0.180000       12.0110           0
      7338 MEMB     56       POPC     H5R      HAL2     0.900000E-01   1.00800           0
      7339 MEMB     56       POPC     H5S      HAL2     0.900000E-01   1.00800           0
      7340 MEMB     56       POPC     C26      CTL2    -0.180000       12.0110           0
      7341 MEMB     56       POPC     H6R      HAL2     0.900000E-01   1.00800           0
      7342 MEMB     56       POPC     H6S      HAL2     0.900000E-01   1.00800           0
      7343 MEMB     56       POPC     C27      CTL2    -0.180000       12.0110           0
      7344 MEMB     56       POPC     H7R      HAL2     0.900000E-01   1.00800           0
      7345 MEMB     56       POPC     H7S      HAL2     0.900000E-01   1.00800           0
      7346 MEMB     56       POPC     C28      CTL2    -0.180000       12.0110           0
      7347 MEMB     56       POPC     H8R      HAL2     0.900000E-01   1.00800           0
      7348 MEMB     56       POPC     H8S      HAL2     0.900000E-01   1.00800           0
      7349 MEMB     56       POPC     C29      CEL1    -0.150000       12.0110           0
      7350 MEMB     56       POPC     H91      HEL1     0.150000       1.00800           0
      7351 MEMB     56       POPC     C210     CEL1    -0.150000       12.0110           0
      7352 MEMB     56       POPC     H101     HEL1     0.150000       1.00800           0
      7353 MEMB     56       POPC     C211     CTL2    -0.180000       12.0110           0
      7354 MEMB     56       POPC     H11R     HAL2     0.900000E-01   1.00800           0
      7355 MEMB     56       POPC     H11S     HAL2     0.900000E-01   1.00800           0
      7356 MEMB     56       POPC     C212     CTL2    -0.180000       12.0110           0
      7357 MEMB     56       POPC     H12R     HAL2     0.900000E-01   1.00800           0
      7358 MEMB     56       POPC     H12S     HAL2     0.900000E-01   1.00800           0
      7359 MEMB     56       POPC     C213     CTL2    -0.180000       12.0110           0
      7360 MEMB     56       POPC     H13R     HAL2     0.900000E-01   1.00800           0
      7361 MEMB     56       POPC     H13S     HAL2     0.900000E-01   1.00800           0
      7362 MEMB     56       POPC     C214     CTL2    -0.180000       12.0110           0
      7363 MEMB     56       POPC     H14R     HAL2     0.900000E-01   1.00800           0
      7364 MEMB     56       POPC     H14S     HAL2     0.900000E-01   1.00800           0
      7365 MEMB     56       POPC     C215     CTL2    -0.180000       12.0110           0
      7366 MEMB     56       POPC     H15R     HAL2     0.900000E-01   1.00800           0
      7367 MEMB     56       POPC     H15S     HAL2     0.900000E-01   1.00800           0
      7368 MEMB     56       POPC     C216     CTL2    -0.180000       12.0110           0
      7369 MEMB     56       POPC     H16R     HAL2     0.900000E-01   1.00800           0
      7370 MEMB     56       POPC     H16S     HAL2     0.900000E-01   1.00800           0
      7371 MEMB     56       POPC     C217     CTL2    -0.180000       12.0110           0
      7372 MEMB     56       POPC     H17R     HAL2     0.900000E-01   1.00800           0
      7373 MEMB     56       POPC     H17S     HAL2     0.900000E-01   1.00800           0
      7374 MEMB     56       POPC     C218     CTL3    -0.270000       12.0110           0
      7375 MEMB     56       POPC     H18R     HAL3     0.900000E-01   1.00800           0
      7376 MEMB     56       POPC     H18S     HAL3     0.900000E-01   1.00800           0
      7377 MEMB     56       POPC     H18T     HAL3     0.900000E-01   1.00800           0
      7378 MEMB     56       POPC     C33      CTL2    -0.180000       12.0110           0
      7379 MEMB     56       POPC     H3X      HAL2     0.900000E-01   1.00800           0
      7380 MEMB     56       POPC     H3Y      HAL2     0.900000E-01   1.00800           0
      7381 MEMB     56       POPC     C34      CTL2    -0.180000       12.0110           0
      7382 MEMB     56       POPC     H4X      HAL2     0.900000E-01   1.00800           0
      7383 MEMB     56       POPC     H4Y      HAL2     0.900000E-01   1.00800           0
      7384 MEMB     56       POPC     C35      CTL2    -0.180000       12.0110           0
      7385 MEMB     56       POPC     H5X      HAL2     0.900000E-01   1.00800           0
      7386 MEMB     56       POPC     H5Y      HAL2     0.900000E-01   1.00800           0
      7387 MEMB     56       POPC     C36      CTL2    -0.180000       12.0110           0
      7388 MEMB     56       POPC     H6X      HAL2     0.900000E-01   1.00800           0
      7389 MEMB     56       POPC     H6Y      HAL2     0.900000E-01   1.00800           0
      7390 MEMB     56       POPC     C37      CTL2    -0.180000       12.0110           0
      7391 MEMB     56       POPC     H7X      HAL2     0.900000E-01   1.00800           0
      7392 MEMB     56       POPC     H7Y      HAL2     0.900000E-01   1.00800           0
      7393 MEMB     56       POPC     C38      CTL2    -0.180000       12.0110           0
      7394 MEMB     56       POPC     H8X      HAL2     0.900000E-01   1.00800           0
      7395 MEMB     56       POPC     H8Y      HAL2     0.900000E-01   1.00800           0
      7396 MEMB     56       POPC     C39      CTL2    -0.180000       12.0110           0
      7397 MEMB     56       POPC     H9X      HAL2     0.900000E-01   1.00800           0
      7398 MEMB     56       POPC     H9Y      HAL2     0.900000E-01   1.00800           0
      7399 MEMB     56       POPC     C310     CTL2    -0.180000       12.0110           0
      7400 MEMB     56       POPC     H10X     HAL2     0.900000E-01   1.00800           0
      7401 MEMB     56       POPC     H10Y     HAL2     0.900000E-01   1.00800           0
      7402 MEMB     56       POPC     C311     CTL2    -0.180000       12.0110           0
      7403 MEMB     56       POPC     H11X     HAL2     0.900000E-01   1.00800           0
      7404 MEMB     56       POPC     H11Y     HAL2     0.900000E-01   1.00800           0
      7405 MEMB     56       POPC     C312     CTL2    -0.180000       12.0110           0
      7406 MEMB     56       POPC     H12X     HAL2     0.900000E-01   1.00800           0
      7407 MEMB     56       POPC     H12Y     HAL2     0.900000E-01   1.00800           0
      7408 MEMB     56       POPC     C313     CTL2    -0.180000       12.0110           0
      7409 MEMB     56       POPC     H13X     HAL2     0.900000E-01   1.00800           0
      7410 MEMB     56       POPC     H13Y     HAL2     0.900000E-01   1.00800           0
      7411 MEMB     56       POPC     C314     CTL2    -0.180000       12.0110           0
      7412 MEMB     56       POPC     H14X     HAL2     0.900000E-01   1.00800           0
      7413 MEMB     56       POPC     H14Y     HAL2     0.900000E-01   1.00800           0
      7414 MEMB     56       POPC     C315     CTL2    -0.180000       12.0110           0
      7415 MEMB     56       POPC     H15X     HAL2     0.900000E-01   1.00800           0
      7416 MEMB     56       POPC     H15Y     HAL2     0.900000E-01   1.00800           0
      7417 MEMB     56       POPC     C316     CTL3    -0.270000       12.0110           0
      7418 MEMB     56       POPC     H16X     HAL3     0.900000E-01   1.00800           0
      7419 MEMB     56       POPC     H16Y     HAL3     0.900000E-01   1.00800           0
      7420 MEMB     56       POPC     H16Z     HAL3     0.900000E-01   1.00800           0
      7421 MEMB     57       POPS     N        NH3L    -0.300000       14.0070           0
      7422 MEMB     57       POPS     HN1      HCL      0.330000       1.00800           0
      7423 MEMB     57       POPS     HN2      HCL      0.330000       1.00800           0
      7424 MEMB     57       POPS     HN3      HCL      0.330000       1.00800           0
      7425 MEMB     57       POPS     C12      CTL1     0.210000       12.0110           0
      7426 MEMB     57       POPS     H12A     HBL      0.100000       1.00800           0
      7427 MEMB     57       POPS     C13      CCL      0.340000       12.0110           0
      7428 MEMB     57       POPS     O13A     OCL     -0.670000       15.9994           0
      7429 MEMB     57       POPS     O13B     OCL     -0.670000       15.9994           0
      7430 MEMB     57       POPS     C11      CTL2    -0.800000E-01   12.0110           0
      7431 MEMB     57       POPS     H11A     HAL2     0.900000E-01   1.00800           0
      7432 MEMB     57       POPS     H11B     HAL2     0.900000E-01   1.00800           0
      7433 MEMB     57       POPS     P        PL        1.50000       30.9740           0
      7434 MEMB     57       POPS     O13      O2L     -0.780000       15.9994           0
      7435 MEMB     57       POPS     O14      O2L     -0.780000       15.9994           0
      7436 MEMB     57       POPS     O12      OSLP    -0.570000       15.9994           0
      7437 MEMB     57       POPS     O11      OSLP    -0.570000       15.9994           0
      7438 MEMB     57       POPS     C1       CTL2    -0.800000E-01   12.0110           0
      7439 MEMB     57       POPS     HA       HAL2     0.900000E-01   1.00800           0
      7440 MEMB     57       POPS     HB       HAL2     0.900000E-01   1.00800           0
      7441 MEMB     57       POPS     C2       CTL1     0.170000       12.0110           0
      7442 MEMB     57       POPS     HS       HAL1     0.900000E-01   1.00800           0
      7443 MEMB     57       POPS     O21      OSL     -0.490000       15.9994           0
      7444 MEMB     57       POPS     C21      CL       0.900000       12.0110           0
      7445 MEMB     57       POPS     O22      OBL     -0.630000       15.9994           0
      7446 MEMB     57       POPS     C22      CTL2    -0.220000       12.0110           0
      7447 MEMB     57       POPS     H2R      HAL2     0.900000E-01   1.00800           0
      7448 MEMB     57       POPS     H2S      HAL2     0.900000E-01   1.00800           0
      7449 MEMB     57       POPS     C3       CTL2     0.800000E-01   12.0110           0
      7450 MEMB     57       POPS     HX       HAL2     0.900000E-01   1.00800           0
      7451 MEMB     57       POPS     HY       HAL2     0.900000E-01   1.00800           0
      7452 MEMB     57       POPS     O31      OSL     -0.490000       15.9994           0
      7453 MEMB     57       POPS     C31      CL       0.900000       12.0110           0
      7454 MEMB     57       POPS     O32      OBL     -0.630000       15.9994           0
      7455 MEMB     57       POPS     C32      CTL2    -0.220000       12.0110           0
      7456 MEMB     57       POPS     H2X      HAL2     0.900000E-01   1.00800           0
      7457 MEMB     57       POPS     H2Y      HAL2     0.900000E-01   1.00800           0
      7458 MEMB     57       POPS     C23      CTL2    -0.180000       12.0110           0
      7459 MEMB     57       POPS     H3R      HAL2     0.900000E-01   1.00800           0
      7460 MEMB     57       POPS     H3S      HAL2     0.900000E-01   1.00800           0
      7461 MEMB     57       POPS     C24      CTL2    -0.180000       12.0110           0
      7462 MEMB     57       POPS     H4R      HAL2     0.900000E-01   1.00800           0
      7463 MEMB     57       POPS     H4S      HAL2     0.900000E-01   1.00800           0
      7464 MEMB     57       POPS     C25      CTL2    -0.180000       12.0110           0
      7465 MEMB     57       POPS     H5R      HAL2     0.900000E-01   1.00800           0
      7466 MEMB     57       POPS     H5S      HAL2     0.900000E-01   1.00800           0
      7467 MEMB     57       POPS     C26      CTL2    -0.180000       12.0110           0
      7468 MEMB     57       POPS     H6R      HAL2     0.900000E-01   1.00800           0
      7469 MEMB     57       POPS     H6S      HAL2     0.900000E-01   1.00800           0
      7470 MEMB     57       POPS     C27      CTL2    -0.180000       12.0110           0
      7471 MEMB     57       POPS     H7R      HAL2     0.900000E-01   1.00800           0
      7472 MEMB     57       POPS     H7S      HAL2     0.900000E-01   1.00800           0
      7473 MEMB     57       POPS     C28      CTL2    -0.180000       12.0110           0
      7474 MEMB     57       POPS     H8R      HAL2     0.900000E-01   1.00800           0
      7475 MEMB     57       POPS     H8S      HAL2     0.900000E-01   1.00800           0
      7476 MEMB     57       POPS     C29      CEL1    -0.150000       12.0110           0
      7477 MEMB     57       POPS     H91      HEL1     0.150000       1.00800           0
      7478 MEMB     57       POPS     C210     CEL1    -0.150000       12.0110           0
      7479 MEMB     57       POPS     H101     HEL1     0.150000       1.00800           0
      7480 MEMB     57       POPS     C211     CTL2    -0.180000       12.0110           0
      7481 MEMB     57       POPS     H11R     HAL2     0.900000E-01   1.00800           0
      7482 MEMB     57       POPS     H11S     HAL2     0.900000E-01   1.00800           0
      7483 MEMB     57       POPS     C212     CTL2    -0.180000       12.0110           0
      7484 MEMB     57       POPS     H12R     HAL2     0.900000E-01   1.00800           0
      7485 MEMB     57       POPS     H12S     HAL2     0.900000E-01   1.00800           0
      7486 MEMB     57       POPS     C213     CTL2    -0.180000       12.0110           0
      7487 MEMB     57       POPS     H13R     HAL2     0.900000E-01   1.00800           0
      7488 MEMB     57       POPS     H13S     HAL2     0.900000E-01   1.00800           0
      7489 MEMB     57       POPS     C214     CTL2    -0.180000       12.0110           0
      7490 MEMB     57       POPS     H14R     HAL2     0.900000E-01   1.00800           0
      7491 MEMB     57       POPS     H14S     HAL2     0.900000E-01   1.00800           0
      7492 MEMB     57       POPS     C215     CTL2    -0.180000       12.0110           0
      7493 MEMB     57       POPS     H15R     HAL2     0.900000E-01   1.00800           0
      7494 MEMB     57       POPS     H15S     HAL2     0.900000E-01   1.00800           0
      7495 MEMB     57       POPS     C216     CTL2    -0.180000       12.0110           0
      7496 MEMB     57       POPS     H16R     HAL2     0.900000E-01   1.00800           0
      7497 MEMB     57       POPS     H16S     HAL2     0.900000E-01   1.00800           0
      7498 MEMB     57       POPS     C217     CTL2    -0.180000       12.0110           0
      7499 MEMB     57       POPS     H17R     HAL2     0.900000E-01   1.00800           0
      7500 MEMB     57       POPS     H17S     HAL2     0.900000E-01   1.00800           0
      7501 MEMB     57       POPS     C218     CTL3    -0.270000       12.0110           0
      7502 MEMB     57       POPS     H18R     HAL3     0.900000E-01   1.00800           0
      7503 MEMB     57       POPS     H18S     HAL3     0.900000E-01   1.00800           0
      7504 MEMB     57       POPS     H18T     HAL3     0.900000E-01   1.00800           0
      7505 MEMB     57       POPS     C33      CTL2    -0.180000       12.0110           0
      7506 MEMB     57       POPS     H3X      HAL2     0.900000E-01   1.00800           0
      7507 MEMB     57       POPS     H3Y      HAL2     0.900000E-01   1.00800           0
      7508 MEMB     57       POPS     C34      CTL2    -0.180000       12.0110           0
      7509 MEMB     57       POPS     H4X      HAL2     0.900000E-01   1.00800           0
      7510 MEMB     57       POPS     H4Y      HAL2     0.900000E-01   1.00800           0
      7511 MEMB     57       POPS     C35      CTL2    -0.180000       12.0110           0
      7512 MEMB     57       POPS     H5X      HAL2     0.900000E-01   1.00800           0
      7513 MEMB     57       POPS     H5Y      HAL2     0.900000E-01   1.00800           0
      7514 MEMB     57       POPS     C36      CTL2    -0.180000       12.0110           0
      7515 MEMB     57       POPS     H6X      HAL2     0.900000E-01   1.00800           0
      7516 MEMB     57       POPS     H6Y      HAL2     0.900000E-01   1.00800           0
      7517 MEMB     57       POPS     C37      CTL2    -0.180000       12.0110           0
      7518 MEMB     57       POPS     H7X      HAL2     0.900000E-01   1.00800           0
      7519 MEMB     57       POPS     H7Y      HAL2     0.900000E-01   1.00800           0
      7520 MEMB     57       POPS     C38      CTL2    -0.180000       12.0110           0
      7521 MEMB     57       POPS     H8X      HAL2     0.900000E-01   1.00800           0
      7522 MEMB     57       POPS     H8Y      HAL2     0.900000E-01   1.00800           0
      7523 MEMB     57       POPS     C39      CTL2    -0.180000       12.0110           0
      7524 MEMB     57       POPS     H9X      HAL2     0.900000E-01   1.00800           0
      7525 MEMB     57       POPS     H9Y      HAL2     0.900000E-01   1.00800           0
      7526 MEMB     57       POPS     C310     CTL2    -0.180000       12.0110           0
      7527 MEMB     57       POPS     H10X     HAL2     0.900000E-01   1.00800           0
      7528 MEMB     57       POPS     H10Y     HAL2     0.900000E-01   1.00800           0
      7529 MEMB     57       POPS     C311     CTL2    -0.180000       12.0110           0
      7530 MEMB     57       POPS     H11X     HAL2     0.900000E-01   1.00800           0
      7531 MEMB     57       POPS     H11Y     HAL2     0.900000E-01   1.00800           0
      7532 MEMB     57       POPS     C312     CTL2    -0.180000       12.0110           0
      7533 MEMB     57       POPS     H12X     HAL2     0.900000E-01   1.00800           0
      7534 MEMB     57       POPS     H12Y     HAL2     0.900000E-01   1.00800           0
      7535 MEMB     57       POPS     C313     CTL2    -0.180000       12.0110           0
      7536 MEMB     57       POPS     H13X     HAL2     0.900000E-01   1.00800           0
      7537 MEMB     57       POPS     H13Y     HAL2     0.900000E-01   1.00800           0
      7538 MEMB     57       POPS     C314     CTL2    -0.180000       12.0110           0
      7539 MEMB     57       POPS     H14X     HAL2     0.900000E-01   1.00800           0
      7540 MEMB     57       POPS     H14Y     HAL2     0.900000E-01   1.00800           0
      7541 MEMB     57       POPS     C315     CTL2    -0.180000       12.0110           0
      7542 MEMB     57       POPS     H15X     HAL2     0.900000E-01   1.00800           0
      7543 MEMB     57       POPS     H15Y     HAL2     0.900000E-01   1.00800           0
      7544 MEMB     57       POPS     C316     CTL3    -0.270000       12.0110           0
      7545 MEMB     57       POPS     H16X     HAL3     0.900000E-01   1.00800           0
      7546 MEMB     57       POPS     H16Y     HAL3     0.900000E-01   1.00800           0
      7547 MEMB     57       POPS     H16Z     HAL3     0.900000E-01   1.00800           0
      7548 MEMB     58       POPC     N        NTL     -0.600000       14.0070           0
      7549 MEMB     58       POPC     C12      CTL2    -0.100000       12.0110           0
      7550 MEMB     58       POPC     H12A     HL       0.250000       1.00800           0
      7551 MEMB     58       POPC     H12B     HL       0.250000       1.00800           0
      7552 MEMB     58       POPC     C13      CTL5    -0.350000       12.0110           0
      7553 MEMB     58       POPC     H13A     HL       0.250000       1.00800           0
      7554 MEMB     58       POPC     H13B     HL       0.250000       1.00800           0
      7555 MEMB     58       POPC     H13C     HL       0.250000       1.00800           0
      7556 MEMB     58       POPC     C14      CTL5    -0.350000       12.0110           0
      7557 MEMB     58       POPC     H14A     HL       0.250000       1.00800           0
      7558 MEMB     58       POPC     H14B     HL       0.250000       1.00800           0
      7559 MEMB     58       POPC     H14C     HL       0.250000       1.00800           0
      7560 MEMB     58       POPC     C15      CTL5    -0.350000       12.0110           0
      7561 MEMB     58       POPC     H15A     HL       0.250000       1.00800           0
      7562 MEMB     58       POPC     H15B     HL       0.250000       1.00800           0
      7563 MEMB     58       POPC     H15C     HL       0.250000       1.00800           0
      7564 MEMB     58       POPC     C11      CTL2    -0.800000E-01   12.0110           0
      7565 MEMB     58       POPC     H11A     HAL2     0.900000E-01   1.00800           0
      7566 MEMB     58       POPC     H11B     HAL2     0.900000E-01   1.00800           0
      7567 MEMB     58       POPC     P        PL        1.50000       30.9740           0
      7568 MEMB     58       POPC     O13      O2L     -0.780000       15.9994           0
      7569 MEMB     58       POPC     O14      O2L     -0.780000       15.9994           0
      7570 MEMB     58       POPC     O12      OSLP    -0.570000       15.9994           0
      7571 MEMB     58       POPC     O11      OSLP    -0.570000       15.9994           0
      7572 MEMB     58       POPC     C1       CTL2    -0.800000E-01   12.0110           0
      7573 MEMB     58       POPC     HA       HAL2     0.900000E-01   1.00800           0
      7574 MEMB     58       POPC     HB       HAL2     0.900000E-01   1.00800           0
      7575 MEMB     58       POPC     C2       CTL1     0.170000       12.0110           0
      7576 MEMB     58       POPC     HS       HAL1     0.900000E-01   1.00800           0
      7577 MEMB     58       POPC     O21      OSL     -0.490000       15.9994           0
      7578 MEMB     58       POPC     C21      CL       0.900000       12.0110           0
      7579 MEMB     58       POPC     O22      OBL     -0.630000       15.9994           0
      7580 MEMB     58       POPC     C22      CTL2    -0.220000       12.0110           0
      7581 MEMB     58       POPC     H2R      HAL2     0.900000E-01   1.00800           0
      7582 MEMB     58       POPC     H2S      HAL2     0.900000E-01   1.00800           0
      7583 MEMB     58       POPC     C3       CTL2     0.800000E-01   12.0110           0
      7584 MEMB     58       POPC     HX       HAL2     0.900000E-01   1.00800           0
      7585 MEMB     58       POPC     HY       HAL2     0.900000E-01   1.00800           0
      7586 MEMB     58       POPC     O31      OSL     -0.490000       15.9994           0
      7587 MEMB     58       POPC     C31      CL       0.900000       12.0110           0
      7588 MEMB     58       POPC     O32      OBL     -0.630000       15.9994           0
      7589 MEMB     58       POPC     C32      CTL2    -0.220000       12.0110           0
      7590 MEMB     58       POPC     H2X      HAL2     0.900000E-01   1.00800           0
      7591 MEMB     58       POPC     H2Y      HAL2     0.900000E-01   1.00800           0
      7592 MEMB     58       POPC     C23      CTL2    -0.180000       12.0110           0
      7593 MEMB     58       POPC     H3R      HAL2     0.900000E-01   1.00800           0
      7594 MEMB     58       POPC     H3S      HAL2     0.900000E-01   1.00800           0
      7595 MEMB     58       POPC     C24      CTL2    -0.180000       12.0110           0
      7596 MEMB     58       POPC     H4R      HAL2     0.900000E-01   1.00800           0
      7597 MEMB     58       POPC     H4S      HAL2     0.900000E-01   1.00800           0
      7598 MEMB     58       POPC     C25      CTL2    -0.180000       12.0110           0
      7599 MEMB     58       POPC     H5R      HAL2     0.900000E-01   1.00800           0
      7600 MEMB     58       POPC     H5S      HAL2     0.900000E-01   1.00800           0
      7601 MEMB     58       POPC     C26      CTL2    -0.180000       12.0110           0
      7602 MEMB     58       POPC     H6R      HAL2     0.900000E-01   1.00800           0
      7603 MEMB     58       POPC     H6S      HAL2     0.900000E-01   1.00800           0
      7604 MEMB     58       POPC     C27      CTL2    -0.180000       12.0110           0
      7605 MEMB     58       POPC     H7R      HAL2     0.900000E-01   1.00800           0
      7606 MEMB     58       POPC     H7S      HAL2     0.900000E-01   1.00800           0
      7607 MEMB     58       POPC     C28      CTL2    -0.180000       12.0110           0
      7608 MEMB     58       POPC     H8R      HAL2     0.900000E-01   1.00800           0
      7609 MEMB     58       POPC     H8S      HAL2     0.900000E-01   1.00800           0
      7610 MEMB     58       POPC     C29      CEL1    -0.150000       12.0110           0
      7611 MEMB     58       POPC     H91      HEL1     0.150000       1.00800           0
      7612 MEMB     58       POPC     C210     CEL1    -0.150000       12.0110           0
      7613 MEMB     58       POPC     H101     HEL1     0.150000       1.00800           0
      7614 MEMB     58       POPC     C211     CTL2    -0.180000       12.0110           0
      7615 MEMB     58       POPC     H11R     HAL2     0.900000E-01   1.00800           0
      7616 MEMB     58       POPC     H11S     HAL2     0.900000E-01   1.00800           0
      7617 MEMB     58       POPC     C212     CTL2    -0.180000       12.0110           0
      7618 MEMB     58       POPC     H12R     HAL2     0.900000E-01   1.00800           0
      7619 MEMB     58       POPC     H12S     HAL2     0.900000E-01   1.00800           0
      7620 MEMB     58       POPC     C213     CTL2    -0.180000       12.0110           0
      7621 MEMB     58       POPC     H13R     HAL2     0.900000E-01   1.00800           0
      7622 MEMB     58       POPC     H13S     HAL2     0.900000E-01   1.00800           0
      7623 MEMB     58       POPC     C214     CTL2    -0.180000       12.0110           0
      7624 MEMB     58       POPC     H14R     HAL2     0.900000E-01   1.00800           0
      7625 MEMB     58       POPC     H14S     HAL2     0.900000E-01   1.00800           0
      7626 MEMB     58       POPC     C215     CTL2    -0.180000       12.0110           0
      7627 MEMB     58       POPC     H15R     HAL2     0.900000E-01   1.00800           0
      7628 MEMB     58       POPC     H15S     HAL2     0.900000E-01   1.00800           0
      7629 MEMB     58       POPC     C216     CTL2    -0.180000       12.0110           0
      7630 MEMB     58       POPC     H16R     HAL2     0.900000E-01   1.00800           0
      7631 MEMB     58       POPC     H16S     HAL2     0.900000E-01   1.00800           0
      7632 MEMB     58       POPC     C217     CTL2    -0.180000       12.0110           0
      7633 MEMB     58       POPC     H17R     HAL2     0.900000E-01   1.00800           0
      7634 MEMB     58       POPC     H17S     HAL2     0.900000E-01   1.00800           0
      7635 MEMB     58       POPC     C218     CTL3    -0.270000       12.0110           0
      7636 MEMB     58       POPC     H18R     HAL3     0.900000E-01   1.00800           0
      7637 MEMB     58       POPC     H18S     HAL3     0.900000E-01   1.00800           0
      7638 MEMB     58       POPC     H18T     HAL3     0.900000E-01   1.00800           0
      7639 MEMB     58       POPC     C33      CTL2    -0.180000       12.0110           0
      7640 MEMB     58       POPC     H3X      HAL2     0.900000E-01   1.00800           0
      7641 MEMB     58       POPC     H3Y      HAL2     0.900000E-01   1.00800           0
      7642 MEMB     58       POPC     C34      CTL2    -0.180000       12.0110           0
      7643 MEMB     58       POPC     H4X      HAL2     0.900000E-01   1.00800           0
      7644 MEMB     58       POPC     H4Y      HAL2     0.900000E-01   1.00800           0
      7645 MEMB     58       POPC     C35      CTL2    -0.180000       12.0110           0
      7646 MEMB     58       POPC     H5X      HAL2     0.900000E-01   1.00800           0
      7647 MEMB     58       POPC     H5Y      HAL2     0.900000E-01   1.00800           0
      7648 MEMB     58       POPC     C36      CTL2    -0.180000       12.0110           0
      7649 MEMB     58       POPC     H6X      HAL2     0.900000E-01   1.00800           0
      7650 MEMB     58       POPC     H6Y      HAL2     0.900000E-01   1.00800           0
      7651 MEMB     58       POPC     C37      CTL2    -0.180000       12.0110           0
      7652 MEMB     58       POPC     H7X      HAL2     0.900000E-01   1.00800           0
      7653 MEMB     58       POPC     H7Y      HAL2     0.900000E-01   1.00800           0
      7654 MEMB     58       POPC     C38      CTL2    -0.180000       12.0110           0
      7655 MEMB     58       POPC     H8X      HAL2     0.900000E-01   1.00800           0
      7656 MEMB     58       POPC     H8Y      HAL2     0.900000E-01   1.00800           0
      7657 MEMB     58       POPC     C39      CTL2    -0.180000       12.0110           0
      7658 MEMB     58       POPC     H9X      HAL2     0.900000E-01   1.00800           0
      7659 MEMB     58       POPC     H9Y      HAL2     0.900000E-01   1.00800           0
      7660 MEMB     58       POPC     C310     CTL2    -0.180000       12.0110           0
      7661 MEMB     58       POPC     H10X     HAL2     0.900000E-01   1.00800           0
      7662 MEMB     58       POPC     H10Y     HAL2     0.900000E-01   1.00800           0
      7663 MEMB     58       POPC     C311     CTL2    -0.180000       12.0110           0
      7664 MEMB     58       POPC     H11X     HAL2     0.900000E-01   1.00800           0
      7665 MEMB     58       POPC     H11Y     HAL2     0.900000E-01   1.00800           0
      7666 MEMB     58       POPC     C312     CTL2    -0.180000       12.0110           0
      7667 MEMB     58       POPC     H12X     HAL2     0.900000E-01   1.00800           0
      7668 MEMB     58       POPC     H12Y     HAL2     0.900000E-01   1.00800           0
      7669 MEMB     58       POPC     C313     CTL2    -0.180000       12.0110           0
      7670 MEMB     58       POPC     H13X     HAL2     0.900000E-01   1.00800           0
      7671 MEMB     58       POPC     H13Y     HAL2     0.900000E-01   1.00800           0
      7672 MEMB     58       POPC     C314     CTL2    -0.180000       12.0110           0
      7673 MEMB     58       POPC     H14X     HAL2     0.900000E-01   1.00800           0
      7674 MEMB     58       POPC     H14Y     HAL2     0.900000E-01   1.00800           0
      7675 MEMB     58       POPC     C315     CTL2    -0.180000       12.0110           0
      7676 MEMB     58       POPC     H15X     HAL2     0.900000E-01   1.00800           0
      7677 MEMB     58       POPC     H15Y     HAL2     0.900000E-01   1.00800           0
      7678 MEMB     58       POPC     C316     CTL3    -0.270000       12.0110           0
      7679 MEMB     58       POPC     H16X     HAL3     0.900000E-01   1.00800           0
      7680 MEMB     58       POPC     H16Y     HAL3     0.900000E-01   1.00800           0
      7681 MEMB     58       POPC     H16Z     HAL3     0.900000E-01   1.00800           0
      7682 MEMB     59       POPC     N        NTL     -0.600000       14.0070           0
      7683 MEMB     59       POPC     C12      CTL2    -0.100000       12.0110           0
      7684 MEMB     59       POPC     H12A     HL       0.250000       1.00800           0
      7685 MEMB     59       POPC     H12B     HL       0.250000       1.00800           0
      7686 MEMB     59       POPC     C13      CTL5    -0.350000       12.0110           0
      7687 MEMB     59       POPC     H13A     HL       0.250000       1.00800           0
      7688 MEMB     59       POPC     H13B     HL       0.250000       1.00800           0
      7689 MEMB     59       POPC     H13C     HL       0.250000       1.00800           0
      7690 MEMB     59       POPC     C14      CTL5    -0.350000       12.0110           0
      7691 MEMB     59       POPC     H14A     HL       0.250000       1.00800           0
      7692 MEMB     59       POPC     H14B     HL       0.250000       1.00800           0
      7693 MEMB     59       POPC     H14C     HL       0.250000       1.00800           0
      7694 MEMB     59       POPC     C15      CTL5    -0.350000       12.0110           0
      7695 MEMB     59       POPC     H15A     HL       0.250000       1.00800           0
      7696 MEMB     59       POPC     H15B     HL       0.250000       1.00800           0
      7697 MEMB     59       POPC     H15C     HL       0.250000       1.00800           0
      7698 MEMB     59       POPC     C11      CTL2    -0.800000E-01   12.0110           0
      7699 MEMB     59       POPC     H11A     HAL2     0.900000E-01   1.00800           0
      7700 MEMB     59       POPC     H11B     HAL2     0.900000E-01   1.00800           0
      7701 MEMB     59       POPC     P        PL        1.50000       30.9740           0
      7702 MEMB     59       POPC     O13      O2L     -0.780000       15.9994           0
      7703 MEMB     59       POPC     O14      O2L     -0.780000       15.9994           0
      7704 MEMB     59       POPC     O12      OSLP    -0.570000       15.9994           0
      7705 MEMB     59       POPC     O11      OSLP    -0.570000       15.9994           0
      7706 MEMB     59       POPC     C1       CTL2    -0.800000E-01   12.0110           0
      7707 MEMB     59       POPC     HA       HAL2     0.900000E-01   1.00800           0
      7708 MEMB     59       POPC     HB       HAL2     0.900000E-01   1.00800           0
      7709 MEMB     59       POPC     C2       CTL1     0.170000       12.0110           0
      7710 MEMB     59       POPC     HS       HAL1     0.900000E-01   1.00800           0
      7711 MEMB     59       POPC     O21      OSL     -0.490000       15.9994           0
      7712 MEMB     59       POPC     C21      CL       0.900000       12.0110           0
      7713 MEMB     59       POPC     O22      OBL     -0.630000       15.9994           0
      7714 MEMB     59       POPC     C22      CTL2    -0.220000       12.0110           0
      7715 MEMB     59       POPC     H2R      HAL2     0.900000E-01   1.00800           0
      7716 MEMB     59       POPC     H2S      HAL2     0.900000E-01   1.00800           0
      7717 MEMB     59       POPC     C3       CTL2     0.800000E-01   12.0110           0
      7718 MEMB     59       POPC     HX       HAL2     0.900000E-01   1.00800           0
      7719 MEMB     59       POPC     HY       HAL2     0.900000E-01   1.00800           0
      7720 MEMB     59       POPC     O31      OSL     -0.490000       15.9994           0
      7721 MEMB     59       POPC     C31      CL       0.900000       12.0110           0
      7722 MEMB     59       POPC     O32      OBL     -0.630000       15.9994           0
      7723 MEMB     59       POPC     C32      CTL2    -0.220000       12.0110           0
      7724 MEMB     59       POPC     H2X      HAL2     0.900000E-01   1.00800           0
      7725 MEMB     59       POPC     H2Y      HAL2     0.900000E-01   1.00800           0
      7726 MEMB     59       POPC     C23      CTL2    -0.180000       12.0110           0
      7727 MEMB     59       POPC     H3R      HAL2     0.900000E-01   1.00800           0
      7728 MEMB     59       POPC     H3S      HAL2     0.900000E-01   1.00800           0
      7729 MEMB     59       POPC     C24      CTL2    -0.180000       12.0110           0
      7730 MEMB     59       POPC     H4R      HAL2     0.900000E-01   1.00800           0
      7731 MEMB     59       POPC     H4S      HAL2     0.900000E-01   1.00800           0
      7732 MEMB     59       POPC     C25      CTL2    -0.180000       12.0110           0
      7733 MEMB     59       POPC     H5R      HAL2     0.900000E-01   1.00800           0
      7734 MEMB     59       POPC     H5S      HAL2     0.900000E-01   1.00800           0
      7735 MEMB     59       POPC     C26      CTL2    -0.180000       12.0110           0
      7736 MEMB     59       POPC     H6R      HAL2     0.900000E-01   1.00800           0
      7737 MEMB     59       POPC     H6S      HAL2     0.900000E-01   1.00800           0
      7738 MEMB     59       POPC     C27      CTL2    -0.180000       12.0110           0
      7739 MEMB     59       POPC     H7R      HAL2     0.900000E-01   1.00800           0
      7740 MEMB     59       POPC     H7S      HAL2     0.900000E-01   1.00800           0
      7741 MEMB     59       POPC     C28      CTL2    -0.180000       12.0110           0
      7742 MEMB     59       POPC     H8R      HAL2     0.900000E-01   1.00800           0
      7743 MEMB     59       POPC     H8S      HAL2     0.900000E-01   1.00800           0
      7744 MEMB     59       POPC     C29      CEL1    -0.150000       12.0110           0
      7745 MEMB     59       POPC     H91      HEL1     0.150000       1.00800           0
      7746 MEMB     59       POPC     C210     CEL1    -0.150000       12.0110           0
      7747 MEMB     59       POPC     H101     HEL1     0.150000       1.00800           0
      7748 MEMB     59       POPC     C211     CTL2    -0.180000       12.0110           0
      7749 MEMB     59       POPC     H11R     HAL2     0.900000E-01   1.00800           0
      7750 MEMB     59       POPC     H11S     HAL2     0.900000E-01   1.00800           0
      7751 MEMB     59       POPC     C212     CTL2    -0.180000       12.0110           0
      7752 MEMB     59       POPC     H12R     HAL2     0.900000E-01   1.00800           0
      7753 MEMB     59       POPC     H12S     HAL2     0.900000E-01   1.00800           0
      7754 MEMB     59       POPC     C213     CTL2    -0.180000       12.0110           0
      7755 MEMB     59       POPC     H13R     HAL2     0.900000E-01   1.00800           0
      7756 MEMB     59       POPC     H13S     HAL2     0.900000E-01   1.00800           0
      7757 MEMB     59       POPC     C214     CTL2    -0.180000       12.0110           0
      7758 MEMB     59       POPC     H14R     HAL2     0.900000E-01   1.00800           0
      7759 MEMB     59       POPC     H14S     HAL2     0.900000E-01   1.00800           0
      7760 MEMB     59       POPC     C215     CTL2    -0.180000       12.0110           0
      7761 MEMB     59       POPC     H15R     HAL2     0.900000E-01   1.00800           0
      7762 MEMB     59       POPC     H15S     HAL2     0.900000E-01   1.00800           0
      7763 MEMB     59       POPC     C216     CTL2    -0.180000       12.0110           0
      7764 MEMB     59       POPC     H16R     HAL2     0.900000E-01   1.00800           0
      7765 MEMB     59       POPC     H16S     HAL2     0.900000E-01   1.00800           0
      7766 MEMB     59       POPC     C217     CTL2    -0.180000       12.0110           0
      7767 MEMB     59       POPC     H17R     HAL2     0.900000E-01   1.00800           0
      7768 MEMB     59       POPC     H17S     HAL2     0.900000E-01   1.00800           0
      7769 MEMB     59       POPC     C218     CTL3    -0.270000       12.0110           0
      7770 MEMB     59       POPC     H18R     HAL3     0.900000E-01   1.00800           0
      7771 MEMB     59       POPC     H18S     HAL3     0.900000E-01   1.00800           0
      7772 MEMB     59       POPC     H18T     HAL3     0.900000E-01   1.00800           0
      7773 MEMB     59       POPC     C33      CTL2    -0.180000       12.0110           0
      7774 MEMB     59       POPC     H3X      HAL2     0.900000E-01   1.00800           0
      7775 MEMB     59       POPC     H3Y      HAL2     0.900000E-01   1.00800           0
      7776 MEMB     59       POPC     C34      CTL2    -0.180000       12.0110           0
      7777 MEMB     59       POPC     H4X      HAL2     0.900000E-01   1.00800           0
      7778 MEMB     59       POPC     H4Y      HAL2     0.900000E-01   1.00800           0
      7779 MEMB     59       POPC     C35      CTL2    -0.180000       12.0110           0
      7780 MEMB     59       POPC     H5X      HAL2     0.900000E-01   1.00800           0
      7781 MEMB     59       POPC     H5Y      HAL2     0.900000E-01   1.00800           0
      7782 MEMB     59       POPC     C36      CTL2    -0.180000       12.0110           0
      7783 MEMB     59       POPC     H6X      HAL2     0.900000E-01   1.00800           0
      7784 MEMB     59       POPC     H6Y      HAL2     0.900000E-01   1.00800           0
      7785 MEMB     59       POPC     C37      CTL2    -0.180000       12.0110           0
      7786 MEMB     59       POPC     H7X      HAL2     0.900000E-01   1.00800           0
      7787 MEMB     59       POPC     H7Y      HAL2     0.900000E-01   1.00800           0
      7788 MEMB     59       POPC     C38      CTL2    -0.180000       12.0110           0
      7789 MEMB     59       POPC     H8X      HAL2     0.900000E-01   1.00800           0
      7790 MEMB     59       POPC     H8Y      HAL2     0.900000E-01   1.00800           0
      7791 MEMB     59       POPC     C39      CTL2    -0.180000       12.0110           0
      7792 MEMB     59       POPC     H9X      HAL2     0.900000E-01   1.00800           0
      7793 MEMB     59       POPC     H9Y      HAL2     0.900000E-01   1.00800           0
      7794 MEMB     59       POPC     C310     CTL2    -0.180000       12.0110           0
      7795 MEMB     59       POPC     H10X     HAL2     0.900000E-01   1.00800           0
      7796 MEMB     59       POPC     H10Y     HAL2     0.900000E-01   1.00800           0
      7797 MEMB     59       POPC     C311     CTL2    -0.180000       12.0110           0
      7798 MEMB     59       POPC     H11X     HAL2     0.900000E-01   1.00800           0
      7799 MEMB     59       POPC     H11Y     HAL2     0.900000E-01   1.00800           0
      7800 MEMB     59       POPC     C312     CTL2    -0.180000       12.0110           0
      7801 MEMB     59       POPC     H12X     HAL2     0.900000E-01   1.00800           0
      7802 MEMB     59       POPC     H12Y     HAL2     0.900000E-01   1.00800           0
      7803 MEMB     59       POPC     C313     CTL2    -0.180000       12.0110           0
      7804 MEMB     59       POPC     H13X     HAL2     0.900000E-01   1.00800           0
      7805 MEMB     59       POPC     H13Y     HAL2     0.900000E-01   1.00800           0
      7806 MEMB     59       POPC     C314     CTL2    -0.180000       12.0110           0
      7807 MEMB     59       POPC     H14X     HAL2     0.900000E-01   1.00800           0
      7808 MEMB     59       POPC     H14Y     HAL2     0.900000E-01   1.00800           0
      7809 MEMB     59       POPC     C315     CTL2    -0.180000       12.0110           0
      7810 MEMB     59       POPC     H15X     HAL2     0.900000E-01   1.00800           0
      7811 MEMB     59       POPC     H15Y     HAL2     0.900000E-01   1.00800           0
      7812 MEMB     59       POPC     C316     CTL3    -0.270000       12.0110           0
      7813 MEMB     59       POPC     H16X     HAL3     0.900000E-01   1.00800           0
      7814 MEMB     59       POPC     H16Y     HAL3     0.900000E-01   1.00800           0
      7815 MEMB     59       POPC     H16Z     HAL3     0.900000E-01   1.00800           0
      7816 MEMB     60       POPC     N        NTL     -0.600000       14.0070           0
      7817 MEMB     60       POPC     C12      CTL2    -0.100000       12.0110           0
      7818 MEMB     60       POPC     H12A     HL       0.250000       1.00800           0
      7819 MEMB     60       POPC     H12B     HL       0.250000       1.00800           0
      7820 MEMB     60       POPC     C13      CTL5    -0.350000       12.0110           0
      7821 MEMB     60       POPC     H13A     HL       0.250000       1.00800           0
      7822 MEMB     60       POPC     H13B     HL       0.250000       1.00800           0
      7823 MEMB     60       POPC     H13C     HL       0.250000       1.00800           0
      7824 MEMB     60       POPC     C14      CTL5    -0.350000       12.0110           0
      7825 MEMB     60       POPC     H14A     HL       0.250000       1.00800           0
      7826 MEMB     60       POPC     H14B     HL       0.250000       1.00800           0
      7827 MEMB     60       POPC     H14C     HL       0.250000       1.00800           0
      7828 MEMB     60       POPC     C15      CTL5    -0.350000       12.0110           0
      7829 MEMB     60       POPC     H15A     HL       0.250000       1.00800           0
      7830 MEMB     60       POPC     H15B     HL       0.250000       1.00800           0
      7831 MEMB     60       POPC     H15C     HL       0.250000       1.00800           0
      7832 MEMB     60       POPC     C11      CTL2    -0.800000E-01   12.0110           0
      7833 MEMB     60       POPC     H11A     HAL2     0.900000E-01   1.00800           0
      7834 MEMB     60       POPC     H11B     HAL2     0.900000E-01   1.00800           0
      7835 MEMB     60       POPC     P        PL        1.50000       30.9740           0
      7836 MEMB     60       POPC     O13      O2L     -0.780000       15.9994           0
      7837 MEMB     60       POPC     O14      O2L     -0.780000       15.9994           0
      7838 MEMB     60       POPC     O12      OSLP    -0.570000       15.9994           0
      7839 MEMB     60       POPC     O11      OSLP    -0.570000       15.9994           0
      7840 MEMB     60       POPC     C1       CTL2    -0.800000E-01   12.0110           0
      7841 MEMB     60       POPC     HA       HAL2     0.900000E-01   1.00800           0
      7842 MEMB     60       POPC     HB       HAL2     0.900000E-01   1.00800           0
      7843 MEMB     60       POPC     C2       CTL1     0.170000       12.0110           0
      7844 MEMB     60       POPC     HS       HAL1     0.900000E-01   1.00800           0
      7845 MEMB     60       POPC     O21      OSL     -0.490000       15.9994           0
      7846 MEMB     60       POPC     C21      CL       0.900000       12.0110           0
      7847 MEMB     60       POPC     O22      OBL     -0.630000       15.9994           0
      7848 MEMB     60       POPC     C22      CTL2    -0.220000       12.0110           0
      7849 MEMB     60       POPC     H2R      HAL2     0.900000E-01   1.00800           0
      7850 MEMB     60       POPC     H2S      HAL2     0.900000E-01   1.00800           0
      7851 MEMB     60       POPC     C3       CTL2     0.800000E-01   12.0110           0
      7852 MEMB     60       POPC     HX       HAL2     0.900000E-01   1.00800           0
      7853 MEMB     60       POPC     HY       HAL2     0.900000E-01   1.00800           0
      7854 MEMB     60       POPC     O31      OSL     -0.490000       15.9994           0
      7855 MEMB     60       POPC     C31      CL       0.900000       12.0110           0
      7856 MEMB     60       POPC     O32      OBL     -0.630000       15.9994           0
      7857 MEMB     60       POPC     C32      CTL2    -0.220000       12.0110           0
      7858 MEMB     60       POPC     H2X      HAL2     0.900000E-01   1.00800           0
      7859 MEMB     60       POPC     H2Y      HAL2     0.900000E-01   1.00800           0
      7860 MEMB     60       POPC     C23      CTL2    -0.180000       12.0110           0
      7861 MEMB     60       POPC     H3R      HAL2     0.900000E-01   1.00800           0
      7862 MEMB     60       POPC     H3S      HAL2     0.900000E-01   1.00800           0
      7863 MEMB     60       POPC     C24      CTL2    -0.180000       12.0110           0
      7864 MEMB     60       POPC     H4R      HAL2     0.900000E-01   1.00800           0
      7865 MEMB     60       POPC     H4S      HAL2     0.900000E-01   1.00800           0
      7866 MEMB     60       POPC     C25      CTL2    -0.180000       12.0110           0
      7867 MEMB     60       POPC     H5R      HAL2     0.900000E-01   1.00800           0
      7868 MEMB     60       POPC     H5S      HAL2     0.900000E-01   1.00800           0
      7869 MEMB     60       POPC     C26      CTL2    -0.180000       12.0110           0
      7870 MEMB     60       POPC     H6R      HAL2     0.900000E-01   1.00800           0
      7871 MEMB     60       POPC     H6S      HAL2     0.900000E-01   1.00800           0
      7872 MEMB     60       POPC     C27      CTL2    -0.180000       12.0110           0
      7873 MEMB     60       POPC     H7R      HAL2     0.900000E-01   1.00800           0
      7874 MEMB     60       POPC     H7S      HAL2     0.900000E-01   1.00800           0
      7875 MEMB     60       POPC     C28      CTL2    -0.180000       12.0110           0
      7876 MEMB     60       POPC     H8R      HAL2     0.900000E-01   1.00800           0
      7877 MEMB     60       POPC     H8S      HAL2     0.900000E-01   1.00800           0
      7878 MEMB     60       POPC     C29      CEL1    -0.150000       12.0110           0
      7879 MEMB     60       POPC     H91      HEL1     0.150000       1.00800           0
      7880 MEMB     60       POPC     C210     CEL1    -0.150000       12.0110           0
      7881 MEMB     60       POPC     H101     HEL1     0.150000       1.00800           0
      7882 MEMB     60       POPC     C211     CTL2    -0.180000       12.0110           0
      7883 MEMB     60       POPC     H11R     HAL2     0.900000E-01   1.00800           0
      7884 MEMB     60       POPC     H11S     HAL2     0.900000E-01   1.00800           0
      7885 MEMB     60       POPC     C212     CTL2    -0.180000       12.0110           0
      7886 MEMB     60       POPC     H12R     HAL2     0.900000E-01   1.00800           0
      7887 MEMB     60       POPC     H12S     HAL2     0.900000E-01   1.00800           0
      7888 MEMB     60       POPC     C213     CTL2    -0.180000       12.0110           0
      7889 MEMB     60       POPC     H13R     HAL2     0.900000E-01   1.00800           0
      7890 MEMB     60       POPC     H13S     HAL2     0.900000E-01   1.00800           0
      7891 MEMB     60       POPC     C214     CTL2    -0.180000       12.0110           0
      7892 MEMB     60       POPC     H14R     HAL2     0.900000E-01   1.00800           0
      7893 MEMB     60       POPC     H14S     HAL2     0.900000E-01   1.00800           0
      7894 MEMB     60       POPC     C215     CTL2    -0.180000       12.0110           0
      7895 MEMB     60       POPC     H15R     HAL2     0.900000E-01   1.00800           0
      7896 MEMB     60       POPC     H15S     HAL2     0.900000E-01   1.00800           0
      7897 MEMB     60       POPC     C216     CTL2    -0.180000       12.0110           0
      7898 MEMB     60       POPC     H16R     HAL2     0.900000E-01   1.00800           0
      7899 MEMB     60       POPC     H16S     HAL2     0.900000E-01   1.00800           0
      7900 MEMB     60       POPC     C217     CTL2    -0.180000       12.0110           0
      7901 MEMB     60       POPC     H17R     HAL2     0.900000E-01   1.00800           0
      7902 MEMB     60       POPC     H17S     HAL2     0.900000E-01   1.00800           0
      7903 MEMB     60       POPC     C218     CTL3    -0.270000       12.0110           0
      7904 MEMB     60       POPC     H18R     HAL3     0.900000E-01   1.00800           0
      7905 MEMB     60       POPC     H18S     HAL3     0.900000E-01   1.00800           0
      7906 MEMB     60       POPC     H18T     HAL3     0.900000E-01   1.00800           0
      7907 MEMB     60       POPC     C33      CTL2    -0.180000       12.0110           0
      7908 MEMB     60       POPC     H3X      HAL2     0.900000E-01   1.00800           0
      7909 MEMB     60       POPC     H3Y      HAL2     0.900000E-01   1.00800           0
      7910 MEMB     60       POPC     C34      CTL2    -0.180000       12.0110           0
      7911 MEMB     60       POPC     H4X      HAL2     0.900000E-01   1.00800           0
      7912 MEMB     60       POPC     H4Y      HAL2     0.900000E-01   1.00800           0
      7913 MEMB     60       POPC     C35      CTL2    -0.180000       12.0110           0
      7914 MEMB     60       POPC     H5X      HAL2     0.900000E-01   1.00800           0
      7915 MEMB     60       POPC     H5Y      HAL2     0.900000E-01   1.00800           0
      7916 MEMB     60       POPC     C36      CTL2    -0.180000       12.0110           0
      7917 MEMB     60       POPC     H6X      HAL2     0.900000E-01   1.00800           0
      7918 MEMB     60       POPC     H6Y      HAL2     0.900000E-01   1.00800           0
      7919 MEMB     60       POPC     C37      CTL2    -0.180000       12.0110           0
      7920 MEMB     60       POPC     H7X      HAL2     0.900000E-01   1.00800           0
      7921 MEMB     60       POPC     H7Y      HAL2     0.900000E-01   1.00800           0
      7922 MEMB     60       POPC     C38      CTL2    -0.180000       12.0110           0
      7923 MEMB     60       POPC     H8X      HAL2     0.900000E-01   1.00800           0
      7924 MEMB     60       POPC     H8Y      HAL2     0.900000E-01   1.00800           0
      7925 MEMB     60       POPC     C39      CTL2    -0.180000       12.0110           0
      7926 MEMB     60       POPC     H9X      HAL2     0.900000E-01   1.00800           0
      7927 MEMB     60       POPC     H9Y      HAL2     0.900000E-01   1.00800           0
      7928 MEMB     60       POPC     C310     CTL2    -0.180000       12.0110           0
      7929 MEMB     60       POPC     H10X     HAL2     0.900000E-01   1.00800           0
      7930 MEMB     60       POPC     H10Y     HAL2     0.900000E-01   1.00800           0
      7931 MEMB     60       POPC     C311     CTL2    -0.180000       12.0110           0
      7932 MEMB     60       POPC     H11X     HAL2     0.900000E-01   1.00800           0
      7933 MEMB     60       POPC     H11Y     HAL2     0.900000E-01   1.00800           0
      7934 MEMB     60       POPC     C312     CTL2    -0.180000       12.0110           0
      7935 MEMB     60       POPC     H12X     HAL2     0.900000E-01   1.00800           0
      7936 MEMB     60       POPC     H12Y     HAL2     0.900000E-01   1.00800           0
      7937 MEMB     60       POPC     C313     CTL2    -0.180000       12.0110           0
      7938 MEMB     60       POPC     H13X     HAL2     0.900000E-01   1.00800           0
      7939 MEMB     60       POPC     H13Y     HAL2     0.900000E-01   1.00800           0
      7940 MEMB     60       POPC     C314     CTL2    -0.180000       12.0110           0
      7941 MEMB     60       POPC     H14X     HAL2     0.900000E-01   1.00800           0
      7942 MEMB     60       POPC     H14Y     HAL2     0.900000E-01   1.00800           0
      7943 MEMB     60       POPC     C315     CTL2    -0.180000       12.0110           0
      7944 MEMB     60       POPC     H15X     HAL2     0.900000E-01   1.00800           0
      7945 MEMB     60       POPC     H15Y     HAL2     0.900000E-01   1.00800           0
      7946 MEMB     60       POPC     C316     CTL3    -0.270000       12.0110           0
      7947 MEMB     60       POPC     H16X     HAL3     0.900000E-01   1.00800           0
      7948 MEMB     60       POPC     H16Y     HAL3     0.900000E-01   1.00800           0
      7949 MEMB     60       POPC     H16Z     HAL3     0.900000E-01   1.00800           0
      7950 MEMB     61       POPC     N        NTL     -0.600000       14.0070           0
      7951 MEMB     61       POPC     C12      CTL2    -0.100000       12.0110           0
      7952 MEMB     61       POPC     H12A     HL       0.250000       1.00800           0
      7953 MEMB     61       POPC     H12B     HL       0.250000       1.00800           0
      7954 MEMB     61       POPC     C13      CTL5    -0.350000       12.0110           0
      7955 MEMB     61       POPC     H13A     HL       0.250000       1.00800           0
      7956 MEMB     61       POPC     H13B     HL       0.250000       1.00800           0
      7957 MEMB     61       POPC     H13C     HL       0.250000       1.00800           0
      7958 MEMB     61       POPC     C14      CTL5    -0.350000       12.0110           0
      7959 MEMB     61       POPC     H14A     HL       0.250000       1.00800           0
      7960 MEMB     61       POPC     H14B     HL       0.250000       1.00800           0
      7961 MEMB     61       POPC     H14C     HL       0.250000       1.00800           0
      7962 MEMB     61       POPC     C15      CTL5    -0.350000       12.0110           0
      7963 MEMB     61       POPC     H15A     HL       0.250000       1.00800           0
      7964 MEMB     61       POPC     H15B     HL       0.250000       1.00800           0
      7965 MEMB     61       POPC     H15C     HL       0.250000       1.00800           0
      7966 MEMB     61       POPC     C11      CTL2    -0.800000E-01   12.0110           0
      7967 MEMB     61       POPC     H11A     HAL2     0.900000E-01   1.00800           0
      7968 MEMB     61       POPC     H11B     HAL2     0.900000E-01   1.00800           0
      7969 MEMB     61       POPC     P        PL        1.50000       30.9740           0
      7970 MEMB     61       POPC     O13      O2L     -0.780000       15.9994           0
      7971 MEMB     61       POPC     O14      O2L     -0.780000       15.9994           0
      7972 MEMB     61       POPC     O12      OSLP    -0.570000       15.9994           0
      7973 MEMB     61       POPC     O11      OSLP    -0.570000       15.9994           0
      7974 MEMB     61       POPC     C1       CTL2    -0.800000E-01   12.0110           0
      7975 MEMB     61       POPC     HA       HAL2     0.900000E-01   1.00800           0
      7976 MEMB     61       POPC     HB       HAL2     0.900000E-01   1.00800           0
      7977 MEMB     61       POPC     C2       CTL1     0.170000       12.0110           0
      7978 MEMB     61       POPC     HS       HAL1     0.900000E-01   1.00800           0
      7979 MEMB     61       POPC     O21      OSL     -0.490000       15.9994           0
      7980 MEMB     61       POPC     C21      CL       0.900000       12.0110           0
      7981 MEMB     61       POPC     O22      OBL     -0.630000       15.9994           0
      7982 MEMB     61       POPC     C22      CTL2    -0.220000       12.0110           0
      7983 MEMB     61       POPC     H2R      HAL2     0.900000E-01   1.00800           0
      7984 MEMB     61       POPC     H2S      HAL2     0.900000E-01   1.00800           0
      7985 MEMB     61       POPC     C3       CTL2     0.800000E-01   12.0110           0
      7986 MEMB     61       POPC     HX       HAL2     0.900000E-01   1.00800           0
      7987 MEMB     61       POPC     HY       HAL2     0.900000E-01   1.00800           0
      7988 MEMB     61       POPC     O31      OSL     -0.490000       15.9994           0
      7989 MEMB     61       POPC     C31      CL       0.900000       12.0110           0
      7990 MEMB     61       POPC     O32      OBL     -0.630000       15.9994           0
      7991 MEMB     61       POPC     C32      CTL2    -0.220000       12.0110           0
      7992 MEMB     61       POPC     H2X      HAL2     0.900000E-01   1.00800           0
      7993 MEMB     61       POPC     H2Y      HAL2     0.900000E-01   1.00800           0
      7994 MEMB     61       POPC     C23      CTL2    -0.180000       12.0110           0
      7995 MEMB     61       POPC     H3R      HAL2     0.900000E-01   1.00800           0
      7996 MEMB     61       POPC     H3S      HAL2     0.900000E-01   1.00800           0
      7997 MEMB     61       POPC     C24      CTL2    -0.180000       12.0110           0
      7998 MEMB     61       POPC     H4R      HAL2     0.900000E-01   1.00800           0
      7999 MEMB     61       POPC     H4S      HAL2     0.900000E-01   1.00800           0
      8000 MEMB     61       POPC     C25      CTL2    -0.180000       12.0110           0
      8001 MEMB     61       POPC     H5R      HAL2     0.900000E-01   1.00800           0
      8002 MEMB     61       POPC     H5S      HAL2     0.900000E-01   1.00800           0
      8003 MEMB     61       POPC     C26      CTL2    -0.180000       12.0110           0
      8004 MEMB     61       POPC     H6R      HAL2     0.900000E-01   1.00800           0
      8005 MEMB     61       POPC     H6S      HAL2     0.900000E-01   1.00800           0
      8006 MEMB     61       POPC     C27      CTL2    -0.180000       12.0110           0
      8007 MEMB     61       POPC     H7R      HAL2     0.900000E-01   1.00800           0
      8008 MEMB     61       POPC     H7S      HAL2     0.900000E-01   1.00800           0
      8009 MEMB     61       POPC     C28      CTL2    -0.180000       12.0110           0
      8010 MEMB     61       POPC     H8R      HAL2     0.900000E-01   1.00800           0
      8011 MEMB     61       POPC     H8S      HAL2     0.900000E-01   1.00800           0
      8012 MEMB     61       POPC     C29      CEL1    -0.150000       12.0110           0
      8013 MEMB     61       POPC     H91      HEL1     0.150000       1.00800           0
      8014 MEMB     61       POPC     C210     CEL1    -0.150000       12.0110           0
      8015 MEMB     61       POPC     H101     HEL1     0.150000       1.00800           0
      8016 MEMB     61       POPC     C211     CTL2    -0.180000       12.0110           0
      8017 MEMB     61       POPC     H11R     HAL2     0.900000E-01   1.00800           0
      8018 MEMB     61       POPC     H11S     HAL2     0.900000E-01   1.00800           0
      8019 MEMB     61       POPC     C212     CTL2    -0.180000       12.0110           0
      8020 MEMB     61       POPC     H12R     HAL2     0.900000E-01   1.00800           0
      8021 MEMB     61       POPC     H12S     HAL2     0.900000E-01   1.00800           0
      8022 MEMB     61       POPC     C213     CTL2    -0.180000       12.0110           0
      8023 MEMB     61       POPC     H13R     HAL2     0.900000E-01   1.00800           0
      8024 MEMB     61       POPC     H13S     HAL2     0.900000E-01   1.00800           0
      8025 MEMB     61       POPC     C214     CTL2    -0.180000       12.0110           0
      8026 MEMB     61       POPC     H14R     HAL2     0.900000E-01   1.00800           0
      8027 MEMB     61       POPC     H14S     HAL2     0.900000E-01   1.00800           0
      8028 MEMB     61       POPC     C215     CTL2    -0.180000       12.0110           0
      8029 MEMB     61       POPC     H15R     HAL2     0.900000E-01   1.00800           0
      8030 MEMB     61       POPC     H15S     HAL2     0.900000E-01   1.00800           0
      8031 MEMB     61       POPC     C216     CTL2    -0.180000       12.0110           0
      8032 MEMB     61       POPC     H16R     HAL2     0.900000E-01   1.00800           0
      8033 MEMB     61       POPC     H16S     HAL2     0.900000E-01   1.00800           0
      8034 MEMB     61       POPC     C217     CTL2    -0.180000       12.0110           0
      8035 MEMB     61       POPC     H17R     HAL2     0.900000E-01   1.00800           0
      8036 MEMB     61       POPC     H17S     HAL2     0.900000E-01   1.00800           0
      8037 MEMB     61       POPC     C218     CTL3    -0.270000       12.0110           0
      8038 MEMB     61       POPC     H18R     HAL3     0.900000E-01   1.00800           0
      8039 MEMB     61       POPC     H18S     HAL3     0.900000E-01   1.00800           0
      8040 MEMB     61       POPC     H18T     HAL3     0.900000E-01   1.00800           0
      8041 MEMB     61       POPC     C33      CTL2    -0.180000       12.0110           0
      8042 MEMB     61       POPC     H3X      HAL2     0.900000E-01   1.00800           0
      8043 MEMB     61       POPC     H3Y      HAL2     0.900000E-01   1.00800           0
      8044 MEMB     61       POPC     C34      CTL2    -0.180000       12.0110           0
      8045 MEMB     61       POPC     H4X      HAL2     0.900000E-01   1.00800           0
      8046 MEMB     61       POPC     H4Y      HAL2     0.900000E-01   1.00800           0
      8047 MEMB     61       POPC     C35      CTL2    -0.180000       12.0110           0
      8048 MEMB     61       POPC     H5X      HAL2     0.900000E-01   1.00800           0
      8049 MEMB     61       POPC     H5Y      HAL2     0.900000E-01   1.00800           0
      8050 MEMB     61       POPC     C36      CTL2    -0.180000       12.0110           0
      8051 MEMB     61       POPC     H6X      HAL2     0.900000E-01   1.00800           0
      8052 MEMB     61       POPC     H6Y      HAL2     0.900000E-01   1.00800           0
      8053 MEMB     61       POPC     C37      CTL2    -0.180000       12.0110           0
      8054 MEMB     61       POPC     H7X      HAL2     0.900000E-01   1.00800           0
      8055 MEMB     61       POPC     H7Y      HAL2     0.900000E-01   1.00800           0
      8056 MEMB     61       POPC     C38      CTL2    -0.180000       12.0110           0
      8057 MEMB     61       POPC     H8X      HAL2     0.900000E-01   1.00800           0
      8058 MEMB     61       POPC     H8Y      HAL2     0.900000E-01   1.00800           0
      8059 MEMB     61       POPC     C39      CTL2    -0.180000       12.0110           0
      8060 MEMB     61       POPC     H9X      HAL2     0.900000E-01   1.00800           0
      8061 MEMB     61       POPC     H9Y      HAL2     0.900000E-01   1.00800           0
      8062 MEMB     61       POPC     C310     CTL2    -0.180000       12.0110           0
      8063 MEMB     61       POPC     H10X     HAL2     0.900000E-01   1.00800           0
      8064 MEMB     61       POPC     H10Y     HAL2     0.900000E-01   1.00800           0
      8065 MEMB     61       POPC     C311     CTL2    -0.180000       12.0110           0
      8066 MEMB     61       POPC     H11X     HAL2     0.900000E-01   1.00800           0
      8067 MEMB     61       POPC     H11Y     HAL2     0.900000E-01   1.00800           0
      8068 MEMB     61       POPC     C312     CTL2    -0.180000       12.0110           0
      8069 MEMB     61       POPC     H12X     HAL2     0.900000E-01   1.00800           0
      8070 MEMB     61       POPC     H12Y     HAL2     0.900000E-01   1.00800           0
      8071 MEMB     61       POPC     C313     CTL2    -0.180000       12.0110           0
      8072 MEMB     61       POPC     H13X     HAL2     0.900000E-01   1.00800           0
      8073 MEMB     61       POPC     H13Y     HAL2     0.900000E-01   1.00800           0
      8074 MEMB     61       POPC     C314     CTL2    -0.180000       12.0110           0
      8075 MEMB     61       POPC     H14X     HAL2     0.900000E-01   1.00800           0
      8076 MEMB     61       POPC     H14Y     HAL2     0.900000E-01   1.00800           0
      8077 MEMB     61       POPC     C315     CTL2    -0.180000       12.0110           0
      8078 MEMB     61       POPC     H15X     HAL2     0.900000E-01   1.00800           0
      8079 MEMB     61       POPC     H15Y     HAL2     0.900000E-01   1.00800           0
      8080 MEMB     61       POPC     C316     CTL3    -0.270000       12.0110           0
      8081 MEMB     61       POPC     H16X     HAL3     0.900000E-01   1.00800           0
      8082 MEMB     61       POPC     H16Y     HAL3     0.900000E-01   1.00800           0
      8083 MEMB     61       POPC     H16Z     HAL3     0.900000E-01   1.00800           0
      8084 MEMB     62       POPC     N        NTL     -0.600000       14.0070           0
      8085 MEMB     62       POPC     C12      CTL2    -0.100000       12.0110           0
      8086 MEMB     62       POPC     H12A     HL       0.250000       1.00800           0
      8087 MEMB     62       POPC     H12B     HL       0.250000       1.00800           0
      8088 MEMB     62       POPC     C13      CTL5    -0.350000       12.0110           0
      8089 MEMB     62       POPC     H13A     HL       0.250000       1.00800           0
      8090 MEMB     62       POPC     H13B     HL       0.250000       1.00800           0
      8091 MEMB     62       POPC     H13C     HL       0.250000       1.00800           0
      8092 MEMB     62       POPC     C14      CTL5    -0.350000       12.0110           0
      8093 MEMB     62       POPC     H14A     HL       0.250000       1.00800           0
      8094 MEMB     62       POPC     H14B     HL       0.250000       1.00800           0
      8095 MEMB     62       POPC     H14C     HL       0.250000       1.00800           0
      8096 MEMB     62       POPC     C15      CTL5    -0.350000       12.0110           0
      8097 MEMB     62       POPC     H15A     HL       0.250000       1.00800           0
      8098 MEMB     62       POPC     H15B     HL       0.250000       1.00800           0
      8099 MEMB     62       POPC     H15C     HL       0.250000       1.00800           0
      8100 MEMB     62       POPC     C11      CTL2    -0.800000E-01   12.0110           0
      8101 MEMB     62       POPC     H11A     HAL2     0.900000E-01   1.00800           0
      8102 MEMB     62       POPC     H11B     HAL2     0.900000E-01   1.00800           0
      8103 MEMB     62       POPC     P        PL        1.50000       30.9740           0
      8104 MEMB     62       POPC     O13      O2L     -0.780000       15.9994           0
      8105 MEMB     62       POPC     O14      O2L     -0.780000       15.9994           0
      8106 MEMB     62       POPC     O12      OSLP    -0.570000       15.9994           0
      8107 MEMB     62       POPC     O11      OSLP    -0.570000       15.9994           0
      8108 MEMB     62       POPC     C1       CTL2    -0.800000E-01   12.0110           0
      8109 MEMB     62       POPC     HA       HAL2     0.900000E-01   1.00800           0
      8110 MEMB     62       POPC     HB       HAL2     0.900000E-01   1.00800           0
      8111 MEMB     62       POPC     C2       CTL1     0.170000       12.0110           0
      8112 MEMB     62       POPC     HS       HAL1     0.900000E-01   1.00800           0
      8113 MEMB     62       POPC     O21      OSL     -0.490000       15.9994           0
      8114 MEMB     62       POPC     C21      CL       0.900000       12.0110           0
      8115 MEMB     62       POPC     O22      OBL     -0.630000       15.9994           0
      8116 MEMB     62       POPC     C22      CTL2    -0.220000       12.0110           0
      8117 MEMB     62       POPC     H2R      HAL2     0.900000E-01   1.00800           0
      8118 MEMB     62       POPC     H2S      HAL2     0.900000E-01   1.00800           0
      8119 MEMB     62       POPC     C3       CTL2     0.800000E-01   12.0110           0
      8120 MEMB     62       POPC     HX       HAL2     0.900000E-01   1.00800           0
      8121 MEMB     62       POPC     HY       HAL2     0.900000E-01   1.00800           0
      8122 MEMB     62       POPC     O31      OSL     -0.490000       15.9994           0
      8123 MEMB     62       POPC     C31      CL       0.900000       12.0110           0
      8124 MEMB     62       POPC     O32      OBL     -0.630000       15.9994           0
      8125 MEMB     62       POPC     C32      CTL2    -0.220000       12.0110           0
      8126 MEMB     62       POPC     H2X      HAL2     0.900000E-01   1.00800           0
      8127 MEMB     62       POPC     H2Y      HAL2     0.900000E-01   1.00800           0
      8128 MEMB     62       POPC     C23      CTL2    -0.180000       12.0110           0
      8129 MEMB     62       POPC     H3R      HAL2     0.900000E-01   1.00800           0
      8130 MEMB     62       POPC     H3S      HAL2     0.900000E-01   1.00800           0
      8131 MEMB     62       POPC     C24      CTL2    -0.180000       12.0110           0
      8132 MEMB     62       POPC     H4R      HAL2     0.900000E-01   1.00800           0
      8133 MEMB     62       POPC     H4S      HAL2     0.900000E-01   1.00800           0
      8134 MEMB     62       POPC     C25      CTL2    -0.180000       12.0110           0
      8135 MEMB     62       POPC     H5R      HAL2     0.900000E-01   1.00800           0
      8136 MEMB     62       POPC     H5S      HAL2     0.900000E-01   1.00800           0
      8137 MEMB     62       POPC     C26      CTL2    -0.180000       12.0110           0
      8138 MEMB     62       POPC     H6R      HAL2     0.900000E-01   1.00800           0
      8139 MEMB     62       POPC     H6S      HAL2     0.900000E-01   1.00800           0
      8140 MEMB     62       POPC     C27      CTL2    -0.180000       12.0110           0
      8141 MEMB     62       POPC     H7R      HAL2     0.900000E-01   1.00800           0
      8142 MEMB     62       POPC     H7S      HAL2     0.900000E-01   1.00800           0
      8143 MEMB     62       POPC     C28      CTL2    -0.180000       12.0110           0
      8144 MEMB     62       POPC     H8R      HAL2     0.900000E-01   1.00800           0
      8145 MEMB     62       POPC     H8S      HAL2     0.900000E-01   1.00800           0
      8146 MEMB     62       POPC     C29      CEL1    -0.150000       12.0110           0
      8147 MEMB     62       POPC     H91      HEL1     0.150000       1.00800           0
      8148 MEMB     62       POPC     C210     CEL1    -0.150000       12.0110           0
      8149 MEMB     62       POPC     H101     HEL1     0.150000       1.00800           0
      8150 MEMB     62       POPC     C211     CTL2    -0.180000       12.0110           0
      8151 MEMB     62       POPC     H11R     HAL2     0.900000E-01   1.00800           0
      8152 MEMB     62       POPC     H11S     HAL2     0.900000E-01   1.00800           0
      8153 MEMB     62       POPC     C212     CTL2    -0.180000       12.0110           0
      8154 MEMB     62       POPC     H12R     HAL2     0.900000E-01   1.00800           0
      8155 MEMB     62       POPC     H12S     HAL2     0.900000E-01   1.00800           0
      8156 MEMB     62       POPC     C213     CTL2    -0.180000       12.0110           0
      8157 MEMB     62       POPC     H13R     HAL2     0.900000E-01   1.00800           0
      8158 MEMB     62       POPC     H13S     HAL2     0.900000E-01   1.00800           0
      8159 MEMB     62       POPC     C214     CTL2    -0.180000       12.0110           0
      8160 MEMB     62       POPC     H14R     HAL2     0.900000E-01   1.00800           0
      8161 MEMB     62       POPC     H14S     HAL2     0.900000E-01   1.00800           0
      8162 MEMB     62       POPC     C215     CTL2    -0.180000       12.0110           0
      8163 MEMB     62       POPC     H15R     HAL2     0.900000E-01   1.00800           0
      8164 MEMB     62       POPC     H15S     HAL2     0.900000E-01   1.00800           0
      8165 MEMB     62       POPC     C216     CTL2    -0.180000       12.0110           0
      8166 MEMB     62       POPC     H16R     HAL2     0.900000E-01   1.00800           0
      8167 MEMB     62       POPC     H16S     HAL2     0.900000E-01   1.00800           0
      8168 MEMB     62       POPC     C217     CTL2    -0.180000       12.0110           0
      8169 MEMB     62       POPC     H17R     HAL2     0.900000E-01   1.00800           0
      8170 MEMB     62       POPC     H17S     HAL2     0.900000E-01   1.00800           0
      8171 MEMB     62       POPC     C218     CTL3    -0.270000       12.0110           0
      8172 MEMB     62       POPC     H18R     HAL3     0.900000E-01   1.00800           0
      8173 MEMB     62       POPC     H18S     HAL3     0.900000E-01   1.00800           0
      8174 MEMB     62       POPC     H18T     HAL3     0.900000E-01   1.00800           0
      8175 MEMB     62       POPC     C33      CTL2    -0.180000       12.0110           0
      8176 MEMB     62       POPC     H3X      HAL2     0.900000E-01   1.00800           0
      8177 MEMB     62       POPC     H3Y      HAL2     0.900000E-01   1.00800           0
      8178 MEMB     62       POPC     C34      CTL2    -0.180000       12.0110           0
      8179 MEMB     62       POPC     H4X      HAL2     0.900000E-01   1.00800           0
      8180 MEMB     62       POPC     H4Y      HAL2     0.900000E-01   1.00800           0
      8181 MEMB     62       POPC     C35      CTL2    -0.180000       12.0110           0
      8182 MEMB     62       POPC     H5X      HAL2     0.900000E-01   1.00800           0
      8183 MEMB     62       POPC     H5Y      HAL2     0.900000E-01   1.00800           0
      8184 MEMB     62       POPC     C36      CTL2    -0.180000       12.0110           0
      8185 MEMB     62       POPC     H6X      HAL2     0.900000E-01   1.00800           0
      8186 MEMB     62       POPC     H6Y      HAL2     0.900000E-01   1.00800           0
      8187 MEMB     62       POPC     C37      CTL2    -0.180000       12.0110           0
      8188 MEMB     62       POPC     H7X      HAL2     0.900000E-01   1.00800           0
      8189 MEMB     62       POPC     H7Y      HAL2     0.900000E-01   1.00800           0
      8190 MEMB     62       POPC     C38      CTL2    -0.180000       12.0110           0
      8191 MEMB     62       POPC     H8X      HAL2     0.900000E-01   1.00800           0
      8192 MEMB     62       POPC     H8Y      HAL2     0.900000E-01   1.00800           0
      8193 MEMB     62       POPC     C39      CTL2    -0.180000       12.0110           0
      8194 MEMB     62       POPC     H9X      HAL2     0.900000E-01   1.00800           0
      8195 MEMB     62       POPC     H9Y      HAL2     0.900000E-01   1.00800           0
      8196 MEMB     62       POPC     C310     CTL2    -0.180000       12.0110           0
      8197 MEMB     62       POPC     H10X     HAL2     0.900000E-01   1.00800           0
      8198 MEMB     62       POPC     H10Y     HAL2     0.900000E-01   1.00800           0
      8199 MEMB     62       POPC     C311     CTL2    -0.180000       12.0110           0
      8200 MEMB     62       POPC     H11X     HAL2     0.900000E-01   1.00800           0
      8201 MEMB     62       POPC     H11Y     HAL2     0.900000E-01   1.00800           0
      8202 MEMB     62       POPC     C312     CTL2    -0.180000       12.0110           0
      8203 MEMB     62       POPC     H12X     HAL2     0.900000E-01   1.00800           0
      8204 MEMB     62       POPC     H12Y     HAL2     0.900000E-01   1.00800           0
      8205 MEMB     62       POPC     C313     CTL2    -0.180000       12.0110           0
      8206 MEMB     62       POPC     H13X     HAL2     0.900000E-01   1.00800           0
      8207 MEMB     62       POPC     H13Y     HAL2     0.900000E-01   1.00800           0
      8208 MEMB     62       POPC     C314     CTL2    -0.180000       12.0110           0
      8209 MEMB     62       POPC     H14X     HAL2     0.900000E-01   1.00800           0
      8210 MEMB     62       POPC     H14Y     HAL2     0.900000E-01   1.00800           0
      8211 MEMB     62       POPC     C315     CTL2    -0.180000       12.0110           0
      8212 MEMB     62       POPC     H15X     HAL2     0.900000E-01   1.00800           0
      8213 MEMB     62       POPC     H15Y     HAL2     0.900000E-01   1.00800           0
      8214 MEMB     62       POPC     C316     CTL3    -0.270000       12.0110           0
      8215 MEMB     62       POPC     H16X     HAL3     0.900000E-01   1.00800           0
      8216 MEMB     62       POPC     H16Y     HAL3     0.900000E-01   1.00800           0
      8217 MEMB     62       POPC     H16Z     HAL3     0.900000E-01   1.00800           0
      8218 MEMB     63       POPC     N        NTL     -0.600000       14.0070           0
      8219 MEMB     63       POPC     C12      CTL2    -0.100000       12.0110           0
      8220 MEMB     63       POPC     H12A     HL       0.250000       1.00800           0
      8221 MEMB     63       POPC     H12B     HL       0.250000       1.00800           0
      8222 MEMB     63       POPC     C13      CTL5    -0.350000       12.0110           0
      8223 MEMB     63       POPC     H13A     HL       0.250000       1.00800           0
      8224 MEMB     63       POPC     H13B     HL       0.250000       1.00800           0
      8225 MEMB     63       POPC     H13C     HL       0.250000       1.00800           0
      8226 MEMB     63       POPC     C14      CTL5    -0.350000       12.0110           0
      8227 MEMB     63       POPC     H14A     HL       0.250000       1.00800           0
      8228 MEMB     63       POPC     H14B     HL       0.250000       1.00800           0
      8229 MEMB     63       POPC     H14C     HL       0.250000       1.00800           0
      8230 MEMB     63       POPC     C15      CTL5    -0.350000       12.0110           0
      8231 MEMB     63       POPC     H15A     HL       0.250000       1.00800           0
      8232 MEMB     63       POPC     H15B     HL       0.250000       1.00800           0
      8233 MEMB     63       POPC     H15C     HL       0.250000       1.00800           0
      8234 MEMB     63       POPC     C11      CTL2    -0.800000E-01   12.0110           0
      8235 MEMB     63       POPC     H11A     HAL2     0.900000E-01   1.00800           0
      8236 MEMB     63       POPC     H11B     HAL2     0.900000E-01   1.00800           0
      8237 MEMB     63       POPC     P        PL        1.50000       30.9740           0
      8238 MEMB     63       POPC     O13      O2L     -0.780000       15.9994           0
      8239 MEMB     63       POPC     O14      O2L     -0.780000       15.9994           0
      8240 MEMB     63       POPC     O12      OSLP    -0.570000       15.9994           0
      8241 MEMB     63       POPC     O11      OSLP    -0.570000       15.9994           0
      8242 MEMB     63       POPC     C1       CTL2    -0.800000E-01   12.0110           0
      8243 MEMB     63       POPC     HA       HAL2     0.900000E-01   1.00800           0
      8244 MEMB     63       POPC     HB       HAL2     0.900000E-01   1.00800           0
      8245 MEMB     63       POPC     C2       CTL1     0.170000       12.0110           0
      8246 MEMB     63       POPC     HS       HAL1     0.900000E-01   1.00800           0
      8247 MEMB     63       POPC     O21      OSL     -0.490000       15.9994           0
      8248 MEMB     63       POPC     C21      CL       0.900000       12.0110           0
      8249 MEMB     63       POPC     O22      OBL     -0.630000       15.9994           0
      8250 MEMB     63       POPC     C22      CTL2    -0.220000       12.0110           0
      8251 MEMB     63       POPC     H2R      HAL2     0.900000E-01   1.00800           0
      8252 MEMB     63       POPC     H2S      HAL2     0.900000E-01   1.00800           0
      8253 MEMB     63       POPC     C3       CTL2     0.800000E-01   12.0110           0
      8254 MEMB     63       POPC     HX       HAL2     0.900000E-01   1.00800           0
      8255 MEMB     63       POPC     HY       HAL2     0.900000E-01   1.00800           0
      8256 MEMB     63       POPC     O31      OSL     -0.490000       15.9994           0
      8257 MEMB     63       POPC     C31      CL       0.900000       12.0110           0
      8258 MEMB     63       POPC     O32      OBL     -0.630000       15.9994           0
      8259 MEMB     63       POPC     C32      CTL2    -0.220000       12.0110           0
      8260 MEMB     63       POPC     H2X      HAL2     0.900000E-01   1.00800           0
      8261 MEMB     63       POPC     H2Y      HAL2     0.900000E-01   1.00800           0
      8262 MEMB     63       POPC     C23      CTL2    -0.180000       12.0110           0
      8263 MEMB     63       POPC     H3R      HAL2     0.900000E-01   1.00800           0
      8264 MEMB     63       POPC     H3S      HAL2     0.900000E-01   1.00800           0
      8265 MEMB     63       POPC     C24      CTL2    -0.180000       12.0110           0
      8266 MEMB     63       POPC     H4R      HAL2     0.900000E-01   1.00800           0
      8267 MEMB     63       POPC     H4S      HAL2     0.900000E-01   1.00800           0
      8268 MEMB     63       POPC     C25      CTL2    -0.180000       12.0110           0
      8269 MEMB     63       POPC     H5R      HAL2     0.900000E-01   1.00800           0
      8270 MEMB     63       POPC     H5S      HAL2     0.900000E-01   1.00800           0
      8271 MEMB     63       POPC     C26      CTL2    -0.180000       12.0110           0
      8272 MEMB     63       POPC     H6R      HAL2     0.900000E-01   1.00800           0
      8273 MEMB     63       POPC     H6S      HAL2     0.900000E-01   1.00800           0
      8274 MEMB     63       POPC     C27      CTL2    -0.180000       12.0110           0
      8275 MEMB     63       POPC     H7R      HAL2     0.900000E-01   1.00800           0
      8276 MEMB     63       POPC     H7S      HAL2     0.900000E-01   1.00800           0
      8277 MEMB     63       POPC     C28      CTL2    -0.180000       12.0110           0
      8278 MEMB     63       POPC     H8R      HAL2     0.900000E-01   1.00800           0
      8279 MEMB     63       POPC     H8S      HAL2     0.900000E-01   1.00800           0
      8280 MEMB     63       POPC     C29      CEL1    -0.150000       12.0110           0
      8281 MEMB     63       POPC     H91      HEL1     0.150000       1.00800           0
      8282 MEMB     63       POPC     C210     CEL1    -0.150000       12.0110           0
      8283 MEMB     63       POPC     H101     HEL1     0.150000       1.00800           0
      8284 MEMB     63       POPC     C211     CTL2    -0.180000       12.0110           0
      8285 MEMB     63       POPC     H11R     HAL2     0.900000E-01   1.00800           0
      8286 MEMB     63       POPC     H11S     HAL2     0.900000E-01   1.00800           0
      8287 MEMB     63       POPC     C212     CTL2    -0.180000       12.0110           0
      8288 MEMB     63       POPC     H12R     HAL2     0.900000E-01   1.00800           0
      8289 MEMB     63       POPC     H12S     HAL2     0.900000E-01   1.00800           0
      8290 MEMB     63       POPC     C213     CTL2    -0.180000       12.0110           0
      8291 MEMB     63       POPC     H13R     HAL2     0.900000E-01   1.00800           0
      8292 MEMB     63       POPC     H13S     HAL2     0.900000E-01   1.00800           0
      8293 MEMB     63       POPC     C214     CTL2    -0.180000       12.0110           0
      8294 MEMB     63       POPC     H14R     HAL2     0.900000E-01   1.00800           0
      8295 MEMB     63       POPC     H14S     HAL2     0.900000E-01   1.00800           0
      8296 MEMB     63       POPC     C215     CTL2    -0.180000       12.0110           0
      8297 MEMB     63       POPC     H15R     HAL2     0.900000E-01   1.00800           0
      8298 MEMB     63       POPC     H15S     HAL2     0.900000E-01   1.00800           0
      8299 MEMB     63       POPC     C216     CTL2    -0.180000       12.0110           0
      8300 MEMB     63       POPC     H16R     HAL2     0.900000E-01   1.00800           0
      8301 MEMB     63       POPC     H16S     HAL2     0.900000E-01   1.00800           0
      8302 MEMB     63       POPC     C217     CTL2    -0.180000       12.0110           0
      8303 MEMB     63       POPC     H17R     HAL2     0.900000E-01   1.00800           0
      8304 MEMB     63       POPC     H17S     HAL2     0.900000E-01   1.00800           0
      8305 MEMB     63       POPC     C218     CTL3    -0.270000       12.0110           0
      8306 MEMB     63       POPC     H18R     HAL3     0.900000E-01   1.00800           0
      8307 MEMB     63       POPC     H18S     HAL3     0.900000E-01   1.00800           0
      8308 MEMB     63       POPC     H18T     HAL3     0.900000E-01   1.00800           0
      8309 MEMB     63       POPC     C33      CTL2    -0.180000       12.0110           0
      8310 MEMB     63       POPC     H3X      HAL2     0.900000E-01   1.00800           0
      8311 MEMB     63       POPC     H3Y      HAL2     0.900000E-01   1.00800           0
      8312 MEMB     63       POPC     C34      CTL2    -0.180000       12.0110           0
      8313 MEMB     63       POPC     H4X      HAL2     0.900000E-01   1.00800           0
      8314 MEMB     63       POPC     H4Y      HAL2     0.900000E-01   1.00800           0
      8315 MEMB     63       POPC     C35      CTL2    -0.180000       12.0110           0
      8316 MEMB     63       POPC     H5X      HAL2     0.900000E-01   1.00800           0
      8317 MEMB     63       POPC     H5Y      HAL2     0.900000E-01   1.00800           0
      8318 MEMB     63       POPC     C36      CTL2    -0.180000       12.0110           0
      8319 MEMB     63       POPC     H6X      HAL2     0.900000E-01   1.00800           0
      8320 MEMB     63       POPC     H6Y      HAL2     0.900000E-01   1.00800           0
      8321 MEMB     63       POPC     C37      CTL2    -0.180000       12.0110           0
      8322 MEMB     63       POPC     H7X      HAL2     0.900000E-01   1.00800           0
      8323 MEMB     63       POPC     H7Y      HAL2     0.900000E-01   1.00800           0
      8324 MEMB     63       POPC     C38      CTL2    -0.180000       12.0110           0
      8325 MEMB     63       POPC     H8X      HAL2     0.900000E-01   1.00800           0
      8326 MEMB     63       POPC     H8Y      HAL2     0.900000E-01   1.00800           0
      8327 MEMB     63       POPC     C39      CTL2    -0.180000       12.0110           0
      8328 MEMB     63       POPC     H9X      HAL2     0.900000E-01   1.00800           0
      8329 MEMB     63       POPC     H9Y      HAL2     0.900000E-01   1.00800           0
      8330 MEMB     63       POPC     C310     CTL2    -0.180000       12.0110           0
      8331 MEMB     63       POPC     H10X     HAL2     0.900000E-01   1.00800           0
      8332 MEMB     63       POPC     H10Y     HAL2     0.900000E-01   1.00800           0
      8333 MEMB     63       POPC     C311     CTL2    -0.180000       12.0110           0
      8334 MEMB     63       POPC     H11X     HAL2     0.900000E-01   1.00800           0
      8335 MEMB     63       POPC     H11Y     HAL2     0.900000E-01   1.00800           0
      8336 MEMB     63       POPC     C312     CTL2    -0.180000       12.0110           0
      8337 MEMB     63       POPC     H12X     HAL2     0.900000E-01   1.00800           0
      8338 MEMB     63       POPC     H12Y     HAL2     0.900000E-01   1.00800           0
      8339 MEMB     63       POPC     C313     CTL2    -0.180000       12.0110           0
      8340 MEMB     63       POPC     H13X     HAL2     0.900000E-01   1.00800           0
      8341 MEMB     63       POPC     H13Y     HAL2     0.900000E-01   1.00800           0
      8342 MEMB     63       POPC     C314     CTL2    -0.180000       12.0110           0
      8343 MEMB     63       POPC     H14X     HAL2     0.900000E-01   1.00800           0
      8344 MEMB     63       POPC     H14Y     HAL2     0.900000E-01   1.00800           0
      8345 MEMB     63       POPC     C315     CTL2    -0.180000       12.0110           0
      8346 MEMB     63       POPC     H15X     HAL2     0.900000E-01   1.00800           0
      8347 MEMB     63       POPC     H15Y     HAL2     0.900000E-01   1.00800           0
      8348 MEMB     63       POPC     C316     CTL3    -0.270000       12.0110           0
      8349 MEMB     63       POPC     H16X     HAL3     0.900000E-01   1.00800           0
      8350 MEMB     63       POPC     H16Y     HAL3     0.900000E-01   1.00800           0
      8351 MEMB     63       POPC     H16Z     HAL3     0.900000E-01   1.00800           0
      8352 MEMB     64       POPC     N        NTL     -0.600000       14.0070           0
      8353 MEMB     64       POPC     C12      CTL2    -0.100000       12.0110           0
      8354 MEMB     64       POPC     H12A     HL       0.250000       1.00800           0
      8355 MEMB     64       POPC     H12B     HL       0.250000       1.00800           0
      8356 MEMB     64       POPC     C13      CTL5    -0.350000       12.0110           0
      8357 MEMB     64       POPC     H13A     HL       0.250000       1.00800           0
      8358 MEMB     64       POPC     H13B     HL       0.250000       1.00800           0
      8359 MEMB     64       POPC     H13C     HL       0.250000       1.00800           0
      8360 MEMB     64       POPC     C14      CTL5    -0.350000       12.0110           0
      8361 MEMB     64       POPC     H14A     HL       0.250000       1.00800           0
      8362 MEMB     64       POPC     H14B     HL       0.250000       1.00800           0
      8363 MEMB     64       POPC     H14C     HL       0.250000       1.00800           0
      8364 MEMB     64       POPC     C15      CTL5    -0.350000       12.0110           0
      8365 MEMB     64       POPC     H15A     HL       0.250000       1.00800           0
      8366 MEMB     64       POPC     H15B     HL       0.250000       1.00800           0
      8367 MEMB     64       POPC     H15C     HL       0.250000       1.00800           0
      8368 MEMB     64       POPC     C11      CTL2    -0.800000E-01   12.0110           0
      8369 MEMB     64       POPC     H11A     HAL2     0.900000E-01   1.00800           0
      8370 MEMB     64       POPC     H11B     HAL2     0.900000E-01   1.00800           0
      8371 MEMB     64       POPC     P        PL        1.50000       30.9740           0
      8372 MEMB     64       POPC     O13      O2L     -0.780000       15.9994           0
      8373 MEMB     64       POPC     O14      O2L     -0.780000       15.9994           0
      8374 MEMB     64       POPC     O12      OSLP    -0.570000       15.9994           0
      8375 MEMB     64       POPC     O11      OSLP    -0.570000       15.9994           0
      8376 MEMB     64       POPC     C1       CTL2    -0.800000E-01   12.0110           0
      8377 MEMB     64       POPC     HA       HAL2     0.900000E-01   1.00800           0
      8378 MEMB     64       POPC     HB       HAL2     0.900000E-01   1.00800           0
      8379 MEMB     64       POPC     C2       CTL1     0.170000       12.0110           0
      8380 MEMB     64       POPC     HS       HAL1     0.900000E-01   1.00800           0
      8381 MEMB     64       POPC     O21      OSL     -0.490000       15.9994           0
      8382 MEMB     64       POPC     C21      CL       0.900000       12.0110           0
      8383 MEMB     64       POPC     O22      OBL     -0.630000       15.9994           0
      8384 MEMB     64       POPC     C22      CTL2    -0.220000       12.0110           0
      8385 MEMB     64       POPC     H2R      HAL2     0.900000E-01   1.00800           0
      8386 MEMB     64       POPC     H2S      HAL2     0.900000E-01   1.00800           0
      8387 MEMB     64       POPC     C3       CTL2     0.800000E-01   12.0110           0
      8388 MEMB     64       POPC     HX       HAL2     0.900000E-01   1.00800           0
      8389 MEMB     64       POPC     HY       HAL2     0.900000E-01   1.00800           0
      8390 MEMB     64       POPC     O31      OSL     -0.490000       15.9994           0
      8391 MEMB     64       POPC     C31      CL       0.900000       12.0110           0
      8392 MEMB     64       POPC     O32      OBL     -0.630000       15.9994           0
      8393 MEMB     64       POPC     C32      CTL2    -0.220000       12.0110           0
      8394 MEMB     64       POPC     H2X      HAL2     0.900000E-01   1.00800           0
      8395 MEMB     64       POPC     H2Y      HAL2     0.900000E-01   1.00800           0
      8396 MEMB     64       POPC     C23      CTL2    -0.180000       12.0110           0
      8397 MEMB     64       POPC     H3R      HAL2     0.900000E-01   1.00800           0
      8398 MEMB     64       POPC     H3S      HAL2     0.900000E-01   1.00800           0
      8399 MEMB     64       POPC     C24      CTL2    -0.180000       12.0110           0
      8400 MEMB     64       POPC     H4R      HAL2     0.900000E-01   1.00800           0
      8401 MEMB     64       POPC     H4S      HAL2     0.900000E-01   1.00800           0
      8402 MEMB     64       POPC     C25      CTL2    -0.180000       12.0110           0
      8403 MEMB     64       POPC     H5R      HAL2     0.900000E-01   1.00800           0
      8404 MEMB     64       POPC     H5S      HAL2     0.900000E-01   1.00800           0
      8405 MEMB     64       POPC     C26      CTL2    -0.180000       12.0110           0
      8406 MEMB     64       POPC     H6R      HAL2     0.900000E-01   1.00800           0
      8407 MEMB     64       POPC     H6S      HAL2     0.900000E-01   1.00800           0
      8408 MEMB     64       POPC     C27      CTL2    -0.180000       12.0110           0
      8409 MEMB     64       POPC     H7R      HAL2     0.900000E-01   1.00800           0
      8410 MEMB     64       POPC     H7S      HAL2     0.900000E-01   1.00800           0
      8411 MEMB     64       POPC     C28      CTL2    -0.180000       12.0110           0
      8412 MEMB     64       POPC     H8R      HAL2     0.900000E-01   1.00800           0
      8413 MEMB     64       POPC     H8S      HAL2     0.900000E-01   1.00800           0
      8414 MEMB     64       POPC     C29      CEL1    -0.150000       12.0110           0
      8415 MEMB     64       POPC     H91      HEL1     0.150000       1.00800           0
      8416 MEMB     64       POPC     C210     CEL1    -0.150000       12.0110           0
      8417 MEMB     64       POPC     H101     HEL1     0.150000       1.00800           0
      8418 MEMB     64       POPC     C211     CTL2    -0.180000       12.0110           0
      8419 MEMB     64       POPC     H11R     HAL2     0.900000E-01   1.00800           0
      8420 MEMB     64       POPC     H11S     HAL2     0.900000E-01   1.00800           0
      8421 MEMB     64       POPC     C212     CTL2    -0.180000       12.0110           0
      8422 MEMB     64       POPC     H12R     HAL2     0.900000E-01   1.00800           0
      8423 MEMB     64       POPC     H12S     HAL2     0.900000E-01   1.00800           0
      8424 MEMB     64       POPC     C213     CTL2    -0.180000       12.0110           0
      8425 MEMB     64       POPC     H13R     HAL2     0.900000E-01   1.00800           0
      8426 MEMB     64       POPC     H13S     HAL2     0.900000E-01   1.00800           0
      8427 MEMB     64       POPC     C214     CTL2    -0.180000       12.0110           0
      8428 MEMB     64       POPC     H14R     HAL2     0.900000E-01   1.00800           0
      8429 MEMB     64       POPC     H14S     HAL2     0.900000E-01   1.00800           0
      8430 MEMB     64       POPC     C215     CTL2    -0.180000       12.0110           0
      8431 MEMB     64       POPC     H15R     HAL2     0.900000E-01   1.00800           0
      8432 MEMB     64       POPC     H15S     HAL2     0.900000E-01   1.00800           0
      8433 MEMB     64       POPC     C216     CTL2    -0.180000       12.0110           0
      8434 MEMB     64       POPC     H16R     HAL2     0.900000E-01   1.00800           0
      8435 MEMB     64       POPC     H16S     HAL2     0.900000E-01   1.00800           0
      8436 MEMB     64       POPC     C217     CTL2    -0.180000       12.0110           0
      8437 MEMB     64       POPC     H17R     HAL2     0.900000E-01   1.00800           0
      8438 MEMB     64       POPC     H17S     HAL2     0.900000E-01   1.00800           0
      8439 MEMB     64       POPC     C218     CTL3    -0.270000       12.0110           0
      8440 MEMB     64       POPC     H18R     HAL3     0.900000E-01   1.00800           0
      8441 MEMB     64       POPC     H18S     HAL3     0.900000E-01   1.00800           0
      8442 MEMB     64       POPC     H18T     HAL3     0.900000E-01   1.00800           0
      8443 MEMB     64       POPC     C33      CTL2    -0.180000       12.0110           0
      8444 MEMB     64       POPC     H3X      HAL2     0.900000E-01   1.00800           0
      8445 MEMB     64       POPC     H3Y      HAL2     0.900000E-01   1.00800           0
      8446 MEMB     64       POPC     C34      CTL2    -0.180000       12.0110           0
      8447 MEMB     64       POPC     H4X      HAL2     0.900000E-01   1.00800           0
      8448 MEMB     64       POPC     H4Y      HAL2     0.900000E-01   1.00800           0
      8449 MEMB     64       POPC     C35      CTL2    -0.180000       12.0110           0
      8450 MEMB     64       POPC     H5X      HAL2     0.900000E-01   1.00800           0
      8451 MEMB     64       POPC     H5Y      HAL2     0.900000E-01   1.00800           0
      8452 MEMB     64       POPC     C36      CTL2    -0.180000       12.0110           0
      8453 MEMB     64       POPC     H6X      HAL2     0.900000E-01   1.00800           0
      8454 MEMB     64       POPC     H6Y      HAL2     0.900000E-01   1.00800           0
      8455 MEMB     64       POPC     C37      CTL2    -0.180000       12.0110           0
      8456 MEMB     64       POPC     H7X      HAL2     0.900000E-01   1.00800           0
      8457 MEMB     64       POPC     H7Y      HAL2     0.900000E-01   1.00800           0
      8458 MEMB     64       POPC     C38      CTL2    -0.180000       12.0110           0
      8459 MEMB     64       POPC     H8X      HAL2     0.900000E-01   1.00800           0
      8460 MEMB     64       POPC     H8Y      HAL2     0.900000E-01   1.00800           0
      8461 MEMB     64       POPC     C39      CTL2    -0.180000       12.0110           0
      8462 MEMB     64       POPC     H9X      HAL2     0.900000E-01   1.00800           0
      8463 MEMB     64       POPC     H9Y      HAL2     0.900000E-01   1.00800           0
      8464 MEMB     64       POPC     C310     CTL2    -0.180000       12.0110           0
      8465 MEMB     64       POPC     H10X     HAL2     0.900000E-01   1.00800           0
      8466 MEMB     64       POPC     H10Y     HAL2     0.900000E-01   1.00800           0
      8467 MEMB     64       POPC     C311     CTL2    -0.180000       12.0110           0
      8468 MEMB     64       POPC     H11X     HAL2     0.900000E-01   1.00800           0
      8469 MEMB     64       POPC     H11Y     HAL2     0.900000E-01   1.00800           0
      8470 MEMB     64       POPC     C312     CTL2    -0.180000       12.0110           0
      8471 MEMB     64       POPC     H12X     HAL2     0.900000E-01   1.00800           0
      8472 MEMB     64       POPC     H12Y     HAL2     0.900000E-01   1.00800           0
      8473 MEMB     64       POPC     C313     CTL2    -0.180000       12.0110           0
      8474 MEMB     64       POPC     H13X     HAL2     0.900000E-01   1.00800           0
      8475 MEMB     64       POPC     H13Y     HAL2     0.900000E-01   1.00800           0
      8476 MEMB     64       POPC     C314     CTL2    -0.180000       12.0110           0
      8477 MEMB     64       POPC     H14X     HAL2     0.900000E-01   1.00800           0
      8478 MEMB     64       POPC     H14Y     HAL2     0.900000E-01   1.00800           0
      8479 MEMB     64       POPC     C315     CTL2    -0.180000       12.0110           0
      8480 MEMB     64       POPC     H15X     HAL2     0.900000E-01   1.00800           0
      8481 MEMB     64       POPC     H15Y     HAL2     0.900000E-01   1.00800           0
      8482 MEMB     64       POPC     C316     CTL3    -0.270000       12.0110           0
      8483 MEMB     64       POPC     H16X     HAL3     0.900000E-01   1.00800           0
      8484 MEMB     64       POPC     H16Y     HAL3     0.900000E-01   1.00800           0
      8485 MEMB     64       POPC     H16Z     HAL3     0.900000E-01   1.00800           0
      8486 MEMB     65       POPC     N        NTL     -0.600000       14.0070           0
      8487 MEMB     65       POPC     C12      CTL2    -0.100000       12.0110           0
      8488 MEMB     65       POPC     H12A     HL       0.250000       1.00800           0
      8489 MEMB     65       POPC     H12B     HL       0.250000       1.00800           0
      8490 MEMB     65       POPC     C13      CTL5    -0.350000       12.0110           0
      8491 MEMB     65       POPC     H13A     HL       0.250000       1.00800           0
      8492 MEMB     65       POPC     H13B     HL       0.250000       1.00800           0
      8493 MEMB     65       POPC     H13C     HL       0.250000       1.00800           0
      8494 MEMB     65       POPC     C14      CTL5    -0.350000       12.0110           0
      8495 MEMB     65       POPC     H14A     HL       0.250000       1.00800           0
      8496 MEMB     65       POPC     H14B     HL       0.250000       1.00800           0
      8497 MEMB     65       POPC     H14C     HL       0.250000       1.00800           0
      8498 MEMB     65       POPC     C15      CTL5    -0.350000       12.0110           0
      8499 MEMB     65       POPC     H15A     HL       0.250000       1.00800           0
      8500 MEMB     65       POPC     H15B     HL       0.250000       1.00800           0
      8501 MEMB     65       POPC     H15C     HL       0.250000       1.00800           0
      8502 MEMB     65       POPC     C11      CTL2    -0.800000E-01   12.0110           0
      8503 MEMB     65       POPC     H11A     HAL2     0.900000E-01   1.00800           0
      8504 MEMB     65       POPC     H11B     HAL2     0.900000E-01   1.00800           0
      8505 MEMB     65       POPC     P        PL        1.50000       30.9740           0
      8506 MEMB     65       POPC     O13      O2L     -0.780000       15.9994           0
      8507 MEMB     65       POPC     O14      O2L     -0.780000       15.9994           0
      8508 MEMB     65       POPC     O12      OSLP    -0.570000       15.9994           0
      8509 MEMB     65       POPC     O11      OSLP    -0.570000       15.9994           0
      8510 MEMB     65       POPC     C1       CTL2    -0.800000E-01   12.0110           0
      8511 MEMB     65       POPC     HA       HAL2     0.900000E-01   1.00800           0
      8512 MEMB     65       POPC     HB       HAL2     0.900000E-01   1.00800           0
      8513 MEMB     65       POPC     C2       CTL1     0.170000       12.0110           0
      8514 MEMB     65       POPC     HS       HAL1     0.900000E-01   1.00800           0
      8515 MEMB     65       POPC     O21      OSL     -0.490000       15.9994           0
      8516 MEMB     65       POPC     C21      CL       0.900000       12.0110           0
      8517 MEMB     65       POPC     O22      OBL     -0.630000       15.9994           0
      8518 MEMB     65       POPC     C22      CTL2    -0.220000       12.0110           0
      8519 MEMB     65       POPC     H2R      HAL2     0.900000E-01   1.00800           0
      8520 MEMB     65       POPC     H2S      HAL2     0.900000E-01   1.00800           0
      8521 MEMB     65       POPC     C3       CTL2     0.800000E-01   12.0110           0
      8522 MEMB     65       POPC     HX       HAL2     0.900000E-01   1.00800           0
      8523 MEMB     65       POPC     HY       HAL2     0.900000E-01   1.00800           0
      8524 MEMB     65       POPC     O31      OSL     -0.490000       15.9994           0
      8525 MEMB     65       POPC     C31      CL       0.900000       12.0110           0
      8526 MEMB     65       POPC     O32      OBL     -0.630000       15.9994           0
      8527 MEMB     65       POPC     C32      CTL2    -0.220000       12.0110           0
      8528 MEMB     65       POPC     H2X      HAL2     0.900000E-01   1.00800           0
      8529 MEMB     65       POPC     H2Y      HAL2     0.900000E-01   1.00800           0
      8530 MEMB     65       POPC     C23      CTL2    -0.180000       12.0110           0
      8531 MEMB     65       POPC     H3R      HAL2     0.900000E-01   1.00800           0
      8532 MEMB     65       POPC     H3S      HAL2     0.900000E-01   1.00800           0
      8533 MEMB     65       POPC     C24      CTL2    -0.180000       12.0110           0
      8534 MEMB     65       POPC     H4R      HAL2     0.900000E-01   1.00800           0
      8535 MEMB     65       POPC     H4S      HAL2     0.900000E-01   1.00800           0
      8536 MEMB     65       POPC     C25      CTL2    -0.180000       12.0110           0
      8537 MEMB     65       POPC     H5R      HAL2     0.900000E-01   1.00800           0
      8538 MEMB     65       POPC     H5S      HAL2     0.900000E-01   1.00800           0
      8539 MEMB     65       POPC     C26      CTL2    -0.180000       12.0110           0
      8540 MEMB     65       POPC     H6R      HAL2     0.900000E-01   1.00800           0
      8541 MEMB     65       POPC     H6S      HAL2     0.900000E-01   1.00800           0
      8542 MEMB     65       POPC     C27      CTL2    -0.180000       12.0110           0
      8543 MEMB     65       POPC     H7R      HAL2     0.900000E-01   1.00800           0
      8544 MEMB     65       POPC     H7S      HAL2     0.900000E-01   1.00800           0
      8545 MEMB     65       POPC     C28      CTL2    -0.180000       12.0110           0
      8546 MEMB     65       POPC     H8R      HAL2     0.900000E-01   1.00800           0
      8547 MEMB     65       POPC     H8S      HAL2     0.900000E-01   1.00800           0
      8548 MEMB     65       POPC     C29      CEL1    -0.150000       12.0110           0
      8549 MEMB     65       POPC     H91      HEL1     0.150000       1.00800           0
      8550 MEMB     65       POPC     C210     CEL1    -0.150000       12.0110           0
      8551 MEMB     65       POPC     H101     HEL1     0.150000       1.00800           0
      8552 MEMB     65       POPC     C211     CTL2    -0.180000       12.0110           0
      8553 MEMB     65       POPC     H11R     HAL2     0.900000E-01   1.00800           0
      8554 MEMB     65       POPC     H11S     HAL2     0.900000E-01   1.00800           0
      8555 MEMB     65       POPC     C212     CTL2    -0.180000       12.0110           0
      8556 MEMB     65       POPC     H12R     HAL2     0.900000E-01   1.00800           0
      8557 MEMB     65       POPC     H12S     HAL2     0.900000E-01   1.00800           0
      8558 MEMB     65       POPC     C213     CTL2    -0.180000       12.0110           0
      8559 MEMB     65       POPC     H13R     HAL2     0.900000E-01   1.00800           0
      8560 MEMB     65       POPC     H13S     HAL2     0.900000E-01   1.00800           0
      8561 MEMB     65       POPC     C214     CTL2    -0.180000       12.0110           0
      8562 MEMB     65       POPC     H14R     HAL2     0.900000E-01   1.00800           0
      8563 MEMB     65       POPC     H14S     HAL2     0.900000E-01   1.00800           0
      8564 MEMB     65       POPC     C215     CTL2    -0.180000       12.0110           0
      8565 MEMB     65       POPC     H15R     HAL2     0.900000E-01   1.00800           0
      8566 MEMB     65       POPC     H15S     HAL2     0.900000E-01   1.00800           0
      8567 MEMB     65       POPC     C216     CTL2    -0.180000       12.0110           0
      8568 MEMB     65       POPC     H16R     HAL2     0.900000E-01   1.00800           0
      8569 MEMB     65       POPC     H16S     HAL2     0.900000E-01   1.00800           0
      8570 MEMB     65       POPC     C217     CTL2    -0.180000       12.0110           0
      8571 MEMB     65       POPC     H17R     HAL2     0.900000E-01   1.00800           0
      8572 MEMB     65       POPC     H17S     HAL2     0.900000E-01   1.00800           0
      8573 MEMB     65       POPC     C218     CTL3    -0.270000       12.0110           0
      8574 MEMB     65       POPC     H18R     HAL3     0.900000E-01   1.00800           0
      8575 MEMB     65       POPC     H18S     HAL3     0.900000E-01   1.00800           0
      8576 MEMB     65       POPC     H18T     HAL3     0.900000E-01   1.00800           0
      8577 MEMB     65       POPC     C33      CTL2    -0.180000       12.0110           0
      8578 MEMB     65       POPC     H3X      HAL2     0.900000E-01   1.00800           0
      8579 MEMB     65       POPC     H3Y      HAL2     0.900000E-01   1.00800           0
      8580 MEMB     65       POPC     C34      CTL2    -0.180000       12.0110           0
      8581 MEMB     65       POPC     H4X      HAL2     0.900000E-01   1.00800           0
      8582 MEMB     65       POPC     H4Y      HAL2     0.900000E-01   1.00800           0
      8583 MEMB     65       POPC     C35      CTL2    -0.180000       12.0110           0
      8584 MEMB     65       POPC     H5X      HAL2     0.900000E-01   1.00800           0
      8585 MEMB     65       POPC     H5Y      HAL2     0.900000E-01   1.00800           0
      8586 MEMB     65       POPC     C36      CTL2    -0.180000       12.0110           0
      8587 MEMB     65       POPC     H6X      HAL2     0.900000E-01   1.00800           0
      8588 MEMB     65       POPC     H6Y      HAL2     0.900000E-01   1.00800           0
      8589 MEMB     65       POPC     C37      CTL2    -0.180000       12.0110           0
      8590 MEMB     65       POPC     H7X      HAL2     0.900000E-01   1.00800           0
      8591 MEMB     65       POPC     H7Y      HAL2     0.900000E-01   1.00800           0
      8592 MEMB     65       POPC     C38      CTL2    -0.180000       12.0110           0
      8593 MEMB     65       POPC     H8X      HAL2     0.900000E-01   1.00800           0
      8594 MEMB     65       POPC     H8Y      HAL2     0.900000E-01   1.00800           0
      8595 MEMB     65       POPC     C39      CTL2    -0.180000       12.0110           0
      8596 MEMB     65       POPC     H9X      HAL2     0.900000E-01   1.00800           0
      8597 MEMB     65       POPC     H9Y      HAL2     0.900000E-01   1.00800           0
      8598 MEMB     65       POPC     C310     CTL2    -0.180000       12.0110           0
      8599 MEMB     65       POPC     H10X     HAL2     0.900000E-01   1.00800           0
      8600 MEMB     65       POPC     H10Y     HAL2     0.900000E-01   1.00800           0
      8601 MEMB     65       POPC     C311     CTL2    -0.180000       12.0110           0
      8602 MEMB     65       POPC     H11X     HAL2     0.900000E-01   1.00800           0
      8603 MEMB     65       POPC     H11Y     HAL2     0.900000E-01   1.00800           0
      8604 MEMB     65       POPC     C312     CTL2    -0.180000       12.0110           0
      8605 MEMB     65       POPC     H12X     HAL2     0.900000E-01   1.00800           0
      8606 MEMB     65       POPC     H12Y     HAL2     0.900000E-01   1.00800           0
      8607 MEMB     65       POPC     C313     CTL2    -0.180000       12.0110           0
      8608 MEMB     65       POPC     H13X     HAL2     0.900000E-01   1.00800           0
      8609 MEMB     65       POPC     H13Y     HAL2     0.900000E-01   1.00800           0
      8610 MEMB     65       POPC     C314     CTL2    -0.180000       12.0110           0
      8611 MEMB     65       POPC     H14X     HAL2     0.900000E-01   1.00800           0
      8612 MEMB     65       POPC     H14Y     HAL2     0.900000E-01   1.00800           0
      8613 MEMB     65       POPC     C315     CTL2    -0.180000       12.0110           0
      8614 MEMB     65       POPC     H15X     HAL2     0.900000E-01   1.00800           0
      8615 MEMB     65       POPC     H15Y     HAL2     0.900000E-01   1.00800           0
      8616 MEMB     65       POPC     C316     CTL3    -0.270000       12.0110           0
      8617 MEMB     65       POPC     H16X     HAL3     0.900000E-01   1.00800           0
      8618 MEMB     65       POPC     H16Y     HAL3     0.900000E-01   1.00800           0
      8619 MEMB     65       POPC     H16Z     HAL3     0.900000E-01   1.00800           0
      8620 MEMB     66       POPS     N        NH3L    -0.300000       14.0070           0
      8621 MEMB     66       POPS     HN1      HCL      0.330000       1.00800           0
      8622 MEMB     66       POPS     HN2      HCL      0.330000       1.00800           0
      8623 MEMB     66       POPS     HN3      HCL      0.330000       1.00800           0
      8624 MEMB     66       POPS     C12      CTL1     0.210000       12.0110           0
      8625 MEMB     66       POPS     H12A     HBL      0.100000       1.00800           0
      8626 MEMB     66       POPS     C13      CCL      0.340000       12.0110           0
      8627 MEMB     66       POPS     O13A     OCL     -0.670000       15.9994           0
      8628 MEMB     66       POPS     O13B     OCL     -0.670000       15.9994           0
      8629 MEMB     66       POPS     C11      CTL2    -0.800000E-01   12.0110           0
      8630 MEMB     66       POPS     H11A     HAL2     0.900000E-01   1.00800           0
      8631 MEMB     66       POPS     H11B     HAL2     0.900000E-01   1.00800           0
      8632 MEMB     66       POPS     P        PL        1.50000       30.9740           0
      8633 MEMB     66       POPS     O13      O2L     -0.780000       15.9994           0
      8634 MEMB     66       POPS     O14      O2L     -0.780000       15.9994           0
      8635 MEMB     66       POPS     O12      OSLP    -0.570000       15.9994           0
      8636 MEMB     66       POPS     O11      OSLP    -0.570000       15.9994           0
      8637 MEMB     66       POPS     C1       CTL2    -0.800000E-01   12.0110           0
      8638 MEMB     66       POPS     HA       HAL2     0.900000E-01   1.00800           0
      8639 MEMB     66       POPS     HB       HAL2     0.900000E-01   1.00800           0
      8640 MEMB     66       POPS     C2       CTL1     0.170000       12.0110           0
      8641 MEMB     66       POPS     HS       HAL1     0.900000E-01   1.00800           0
      8642 MEMB     66       POPS     O21      OSL     -0.490000       15.9994           0
      8643 MEMB     66       POPS     C21      CL       0.900000       12.0110           0
      8644 MEMB     66       POPS     O22      OBL     -0.630000       15.9994           0
      8645 MEMB     66       POPS     C22      CTL2    -0.220000       12.0110           0
      8646 MEMB     66       POPS     H2R      HAL2     0.900000E-01   1.00800           0
      8647 MEMB     66       POPS     H2S      HAL2     0.900000E-01   1.00800           0
      8648 MEMB     66       POPS     C3       CTL2     0.800000E-01   12.0110           0
      8649 MEMB     66       POPS     HX       HAL2     0.900000E-01   1.00800           0
      8650 MEMB     66       POPS     HY       HAL2     0.900000E-01   1.00800           0
      8651 MEMB     66       POPS     O31      OSL     -0.490000       15.9994           0
      8652 MEMB     66       POPS     C31      CL       0.900000       12.0110           0
      8653 MEMB     66       POPS     O32      OBL     -0.630000       15.9994           0
      8654 MEMB     66       POPS     C32      CTL2    -0.220000       12.0110           0
      8655 MEMB     66       POPS     H2X      HAL2     0.900000E-01   1.00800           0
      8656 MEMB     66       POPS     H2Y      HAL2     0.900000E-01   1.00800           0
      8657 MEMB     66       POPS     C23      CTL2    -0.180000       12.0110           0
      8658 MEMB     66       POPS     H3R      HAL2     0.900000E-01   1.00800           0
      8659 MEMB     66       POPS     H3S      HAL2     0.900000E-01   1.00800           0
      8660 MEMB     66       POPS     C24      CTL2    -0.180000       12.0110           0
      8661 MEMB     66       POPS     H4R      HAL2     0.900000E-01   1.00800           0
      8662 MEMB     66       POPS     H4S      HAL2     0.900000E-01   1.00800           0
      8663 MEMB     66       POPS     C25      CTL2    -0.180000       12.0110           0
      8664 MEMB     66       POPS     H5R      HAL2     0.900000E-01   1.00800           0
      8665 MEMB     66       POPS     H5S      HAL2     0.900000E-01   1.00800           0
      8666 MEMB     66       POPS     C26      CTL2    -0.180000       12.0110           0
      8667 MEMB     66       POPS     H6R      HAL2     0.900000E-01   1.00800           0
      8668 MEMB     66       POPS     H6S      HAL2     0.900000E-01   1.00800           0
      8669 MEMB     66       POPS     C27      CTL2    -0.180000       12.0110           0
      8670 MEMB     66       POPS     H7R      HAL2     0.900000E-01   1.00800           0
      8671 MEMB     66       POPS     H7S      HAL2     0.900000E-01   1.00800           0
      8672 MEMB     66       POPS     C28      CTL2    -0.180000       12.0110           0
      8673 MEMB     66       POPS     H8R      HAL2     0.900000E-01   1.00800           0
      8674 MEMB     66       POPS     H8S      HAL2     0.900000E-01   1.00800           0
      8675 MEMB     66       POPS     C29      CEL1    -0.150000       12.0110           0
      8676 MEMB     66       POPS     H91      HEL1     0.150000       1.00800           0
      8677 MEMB     66       POPS     C210     CEL1    -0.150000       12.0110           0
      8678 MEMB     66       POPS     H101     HEL1     0.150000       1.00800           0
      8679 MEMB     66       POPS     C211     CTL2    -0.180000       12.0110           0
      8680 MEMB     66       POPS     H11R     HAL2     0.900000E-01   1.00800           0
      8681 MEMB     66       POPS     H11S     HAL2     0.900000E-01   1.00800           0
      8682 MEMB     66       POPS     C212     CTL2    -0.180000       12.0110           0
      8683 MEMB     66       POPS     H12R     HAL2     0.900000E-01   1.00800           0
      8684 MEMB     66       POPS     H12S     HAL2     0.900000E-01   1.00800           0
      8685 MEMB     66       POPS     C213     CTL2    -0.180000       12.0110           0
      8686 MEMB     66       POPS     H13R     HAL2     0.900000E-01   1.00800           0
      8687 MEMB     66       POPS     H13S     HAL2     0.900000E-01   1.00800           0
      8688 MEMB     66       POPS     C214     CTL2    -0.180000       12.0110           0
      8689 MEMB     66       POPS     H14R     HAL2     0.900000E-01   1.00800           0
      8690 MEMB     66       POPS     H14S     HAL2     0.900000E-01   1.00800           0
      8691 MEMB     66       POPS     C215     CTL2    -0.180000       12.0110           0
      8692 MEMB     66       POPS     H15R     HAL2     0.900000E-01   1.00800           0
      8693 MEMB     66       POPS     H15S     HAL2     0.900000E-01   1.00800           0
      8694 MEMB     66       POPS     C216     CTL2    -0.180000       12.0110           0
      8695 MEMB     66       POPS     H16R     HAL2     0.900000E-01   1.00800           0
      8696 MEMB     66       POPS     H16S     HAL2     0.900000E-01   1.00800           0
      8697 MEMB     66       POPS     C217     CTL2    -0.180000       12.0110           0
      8698 MEMB     66       POPS     H17R     HAL2     0.900000E-01   1.00800           0
      8699 MEMB     66       POPS     H17S     HAL2     0.900000E-01   1.00800           0
      8700 MEMB     66       POPS     C218     CTL3    -0.270000       12.0110           0
      8701 MEMB     66       POPS     H18R     HAL3     0.900000E-01   1.00800           0
      8702 MEMB     66       POPS     H18S     HAL3     0.900000E-01   1.00800           0
      8703 MEMB     66       POPS     H18T     HAL3     0.900000E-01   1.00800           0
      8704 MEMB     66       POPS     C33      CTL2    -0.180000       12.0110           0
      8705 MEMB     66       POPS     H3X      HAL2     0.900000E-01   1.00800           0
      8706 MEMB     66       POPS     H3Y      HAL2     0.900000E-01   1.00800           0
      8707 MEMB     66       POPS     C34      CTL2    -0.180000       12.0110           0
      8708 MEMB     66       POPS     H4X      HAL2     0.900000E-01   1.00800           0
      8709 MEMB     66       POPS     H4Y      HAL2     0.900000E-01   1.00800           0
      8710 MEMB     66       POPS     C35      CTL2    -0.180000       12.0110           0
      8711 MEMB     66       POPS     H5X      HAL2     0.900000E-01   1.00800           0
      8712 MEMB     66       POPS     H5Y      HAL2     0.900000E-01   1.00800           0
      8713 MEMB     66       POPS     C36      CTL2    -0.180000       12.0110           0
      8714 MEMB     66       POPS     H6X      HAL2     0.900000E-01   1.00800           0
      8715 MEMB     66       POPS     H6Y      HAL2     0.900000E-01   1.00800           0
      8716 MEMB     66       POPS     C37      CTL2    -0.180000       12.0110           0
      8717 MEMB     66       POPS     H7X      HAL2     0.900000E-01   1.00800           0
      8718 MEMB     66       POPS     H7Y      HAL2     0.900000E-01   1.00800           0
      8719 MEMB     66       POPS     C38      CTL2    -0.180000       12.0110           0
      8720 MEMB     66       POPS     H8X      HAL2     0.900000E-01   1.00800           0
      8721 MEMB     66       POPS     H8Y      HAL2     0.900000E-01   1.00800           0
      8722 MEMB     66       POPS     C39      CTL2    -0.180000       12.0110           0
      8723 MEMB     66       POPS     H9X      HAL2     0.900000E-01   1.00800           0
      8724 MEMB     66       POPS     H9Y      HAL2     0.900000E-01   1.00800           0
      8725 MEMB     66       POPS     C310     CTL2    -0.180000       12.0110           0
      8726 MEMB     66       POPS     H10X     HAL2     0.900000E-01   1.00800           0
      8727 MEMB     66       POPS     H10Y     HAL2     0.900000E-01   1.00800           0
      8728 MEMB     66       POPS     C311     CTL2    -0.180000       12.0110           0
      8729 MEMB     66       POPS     H11X     HAL2     0.900000E-01   1.00800           0
      8730 MEMB     66       POPS     H11Y     HAL2     0.900000E-01   1.00800           0
      8731 MEMB     66       POPS     C312     CTL2    -0.180000       12.0110           0
      8732 MEMB     66       POPS     H12X     HAL2     0.900000E-01   1.00800           0
      8733 MEMB     66       POPS     H12Y     HAL2     0.900000E-01   1.00800           0
      8734 MEMB     66       POPS     C313     CTL2    -0.180000       12.0110           0
      8735 MEMB     66       POPS     H13X     HAL2     0.900000E-01   1.00800           0
      8736 MEMB     66       POPS     H13Y     HAL2     0.900000E-01   1.00800           0
      8737 MEMB     66       POPS     C314     CTL2    -0.180000       12.0110           0
      8738 MEMB     66       POPS     H14X     HAL2     0.900000E-01   1.00800           0
      8739 MEMB     66       POPS     H14Y     HAL2     0.900000E-01   1.00800           0
      8740 MEMB     66       POPS     C315     CTL2    -0.180000       12.0110           0
      8741 MEMB     66       POPS     H15X     HAL2     0.900000E-01   1.00800           0
      8742 MEMB     66       POPS     H15Y     HAL2     0.900000E-01   1.00800           0
      8743 MEMB     66       POPS     C316     CTL3    -0.270000       12.0110           0
      8744 MEMB     66       POPS     H16X     HAL3     0.900000E-01   1.00800           0
      8745 MEMB     66       POPS     H16Y     HAL3     0.900000E-01   1.00800           0
      8746 MEMB     66       POPS     H16Z     HAL3     0.900000E-01   1.00800           0
      8747 MEMB     67       POPC     N        NTL     -0.600000       14.0070           0
      8748 MEMB     67       POPC     C12      CTL2    -0.100000       12.0110           0
      8749 MEMB     67       POPC     H12A     HL       0.250000       1.00800           0
      8750 MEMB     67       POPC     H12B     HL       0.250000       1.00800           0
      8751 MEMB     67       POPC     C13      CTL5    -0.350000       12.0110           0
      8752 MEMB     67       POPC     H13A     HL       0.250000       1.00800           0
      8753 MEMB     67       POPC     H13B     HL       0.250000       1.00800           0
      8754 MEMB     67       POPC     H13C     HL       0.250000       1.00800           0
      8755 MEMB     67       POPC     C14      CTL5    -0.350000       12.0110           0
      8756 MEMB     67       POPC     H14A     HL       0.250000       1.00800           0
      8757 MEMB     67       POPC     H14B     HL       0.250000       1.00800           0
      8758 MEMB     67       POPC     H14C     HL       0.250000       1.00800           0
      8759 MEMB     67       POPC     C15      CTL5    -0.350000       12.0110           0
      8760 MEMB     67       POPC     H15A     HL       0.250000       1.00800           0
      8761 MEMB     67       POPC     H15B     HL       0.250000       1.00800           0
      8762 MEMB     67       POPC     H15C     HL       0.250000       1.00800           0
      8763 MEMB     67       POPC     C11      CTL2    -0.800000E-01   12.0110           0
      8764 MEMB     67       POPC     H11A     HAL2     0.900000E-01   1.00800           0
      8765 MEMB     67       POPC     H11B     HAL2     0.900000E-01   1.00800           0
      8766 MEMB     67       POPC     P        PL        1.50000       30.9740           0
      8767 MEMB     67       POPC     O13      O2L     -0.780000       15.9994           0
      8768 MEMB     67       POPC     O14      O2L     -0.780000       15.9994           0
      8769 MEMB     67       POPC     O12      OSLP    -0.570000       15.9994           0
      8770 MEMB     67       POPC     O11      OSLP    -0.570000       15.9994           0
      8771 MEMB     67       POPC     C1       CTL2    -0.800000E-01   12.0110           0
      8772 MEMB     67       POPC     HA       HAL2     0.900000E-01   1.00800           0
      8773 MEMB     67       POPC     HB       HAL2     0.900000E-01   1.00800           0
      8774 MEMB     67       POPC     C2       CTL1     0.170000       12.0110           0
      8775 MEMB     67       POPC     HS       HAL1     0.900000E-01   1.00800           0
      8776 MEMB     67       POPC     O21      OSL     -0.490000       15.9994           0
      8777 MEMB     67       POPC     C21      CL       0.900000       12.0110           0
      8778 MEMB     67       POPC     O22      OBL     -0.630000       15.9994           0
      8779 MEMB     67       POPC     C22      CTL2    -0.220000       12.0110           0
      8780 MEMB     67       POPC     H2R      HAL2     0.900000E-01   1.00800           0
      8781 MEMB     67       POPC     H2S      HAL2     0.900000E-01   1.00800           0
      8782 MEMB     67       POPC     C3       CTL2     0.800000E-01   12.0110           0
      8783 MEMB     67       POPC     HX       HAL2     0.900000E-01   1.00800           0
      8784 MEMB     67       POPC     HY       HAL2     0.900000E-01   1.00800           0
      8785 MEMB     67       POPC     O31      OSL     -0.490000       15.9994           0
      8786 MEMB     67       POPC     C31      CL       0.900000       12.0110           0
      8787 MEMB     67       POPC     O32      OBL     -0.630000       15.9994           0
      8788 MEMB     67       POPC     C32      CTL2    -0.220000       12.0110           0
      8789 MEMB     67       POPC     H2X      HAL2     0.900000E-01   1.00800           0
      8790 MEMB     67       POPC     H2Y      HAL2     0.900000E-01   1.00800           0
      8791 MEMB     67       POPC     C23      CTL2    -0.180000       12.0110           0
      8792 MEMB     67       POPC     H3R      HAL2     0.900000E-01   1.00800           0
      8793 MEMB     67       POPC     H3S      HAL2     0.900000E-01   1.00800           0
      8794 MEMB     67       POPC     C24      CTL2    -0.180000       12.0110           0
      8795 MEMB     67       POPC     H4R      HAL2     0.900000E-01   1.00800           0
      8796 MEMB     67       POPC     H4S      HAL2     0.900000E-01   1.00800           0
      8797 MEMB     67       POPC     C25      CTL2    -0.180000       12.0110           0
      8798 MEMB     67       POPC     H5R      HAL2     0.900000E-01   1.00800           0
      8799 MEMB     67       POPC     H5S      HAL2     0.900000E-01   1.00800           0
      8800 MEMB     67       POPC     C26      CTL2    -0.180000       12.0110           0
      8801 MEMB     67       POPC     H6R      HAL2     0.900000E-01   1.00800           0
      8802 MEMB     67       POPC     H6S      HAL2     0.900000E-01   1.00800           0
      8803 MEMB     67       POPC     C27      CTL2    -0.180000       12.0110           0
      8804 MEMB     67       POPC     H7R      HAL2     0.900000E-01   1.00800           0
      8805 MEMB     67       POPC     H7S      HAL2     0.900000E-01   1.00800           0
      8806 MEMB     67       POPC     C28      CTL2    -0.180000       12.0110           0
      8807 MEMB     67       POPC     H8R      HAL2     0.900000E-01   1.00800           0
      8808 MEMB     67       POPC     H8S      HAL2     0.900000E-01   1.00800           0
      8809 MEMB     67       POPC     C29      CEL1    -0.150000       12.0110           0
      8810 MEMB     67       POPC     H91      HEL1     0.150000       1.00800           0
      8811 MEMB     67       POPC     C210     CEL1    -0.150000       12.0110           0
      8812 MEMB     67       POPC     H101     HEL1     0.150000       1.00800           0
      8813 MEMB     67       POPC     C211     CTL2    -0.180000       12.0110           0
      8814 MEMB     67       POPC     H11R     HAL2     0.900000E-01   1.00800           0
      8815 MEMB     67       POPC     H11S     HAL2     0.900000E-01   1.00800           0
      8816 MEMB     67       POPC     C212     CTL2    -0.180000       12.0110           0
      8817 MEMB     67       POPC     H12R     HAL2     0.900000E-01   1.00800           0
      8818 MEMB     67       POPC     H12S     HAL2     0.900000E-01   1.00800           0
      8819 MEMB     67       POPC     C213     CTL2    -0.180000       12.0110           0
      8820 MEMB     67       POPC     H13R     HAL2     0.900000E-01   1.00800           0
      8821 MEMB     67       POPC     H13S     HAL2     0.900000E-01   1.00800           0
      8822 MEMB     67       POPC     C214     CTL2    -0.180000       12.0110           0
      8823 MEMB     67       POPC     H14R     HAL2     0.900000E-01   1.00800           0
      8824 MEMB     67       POPC     H14S     HAL2     0.900000E-01   1.00800           0
      8825 MEMB     67       POPC     C215     CTL2    -0.180000       12.0110           0
      8826 MEMB     67       POPC     H15R     HAL2     0.900000E-01   1.00800           0
      8827 MEMB     67       POPC     H15S     HAL2     0.900000E-01   1.00800           0
      8828 MEMB     67       POPC     C216     CTL2    -0.180000       12.0110           0
      8829 MEMB     67       POPC     H16R     HAL2     0.900000E-01   1.00800           0
      8830 MEMB     67       POPC     H16S     HAL2     0.900000E-01   1.00800           0
      8831 MEMB     67       POPC     C217     CTL2    -0.180000       12.0110           0
      8832 MEMB     67       POPC     H17R     HAL2     0.900000E-01   1.00800           0
      8833 MEMB     67       POPC     H17S     HAL2     0.900000E-01   1.00800           0
      8834 MEMB     67       POPC     C218     CTL3    -0.270000       12.0110           0
      8835 MEMB     67       POPC     H18R     HAL3     0.900000E-01   1.00800           0
      8836 MEMB     67       POPC     H18S     HAL3     0.900000E-01   1.00800           0
      8837 MEMB     67       POPC     H18T     HAL3     0.900000E-01   1.00800           0
      8838 MEMB     67       POPC     C33      CTL2    -0.180000       12.0110           0
      8839 MEMB     67       POPC     H3X      HAL2     0.900000E-01   1.00800           0
      8840 MEMB     67       POPC     H3Y      HAL2     0.900000E-01   1.00800           0
      8841 MEMB     67       POPC     C34      CTL2    -0.180000       12.0110           0
      8842 MEMB     67       POPC     H4X      HAL2     0.900000E-01   1.00800           0
      8843 MEMB     67       POPC     H4Y      HAL2     0.900000E-01   1.00800           0
      8844 MEMB     67       POPC     C35      CTL2    -0.180000       12.0110           0
      8845 MEMB     67       POPC     H5X      HAL2     0.900000E-01   1.00800           0
      8846 MEMB     67       POPC     H5Y      HAL2     0.900000E-01   1.00800           0
      8847 MEMB     67       POPC     C36      CTL2    -0.180000       12.0110           0
      8848 MEMB     67       POPC     H6X      HAL2     0.900000E-01   1.00800           0
      8849 MEMB     67       POPC     H6Y      HAL2     0.900000E-01   1.00800           0
      8850 MEMB     67       POPC     C37      CTL2    -0.180000       12.0110           0
      8851 MEMB     67       POPC     H7X      HAL2     0.900000E-01   1.00800           0
      8852 MEMB     67       POPC     H7Y      HAL2     0.900000E-01   1.00800           0
      8853 MEMB     67       POPC     C38      CTL2    -0.180000       12.0110           0
      8854 MEMB     67       POPC     H8X      HAL2     0.900000E-01   1.00800           0
      8855 MEMB     67       POPC     H8Y      HAL2     0.900000E-01   1.00800           0
      8856 MEMB     67       POPC     C39      CTL2    -0.180000       12.0110           0
      8857 MEMB     67       POPC     H9X      HAL2     0.900000E-01   1.00800           0
      8858 MEMB     67       POPC     H9Y      HAL2     0.900000E-01   1.00800           0
      8859 MEMB     67       POPC     C310     CTL2    -0.180000       12.0110           0
      8860 MEMB     67       POPC     H10X     HAL2     0.900000E-01   1.00800           0
      8861 MEMB     67       POPC     H10Y     HAL2     0.900000E-01   1.00800           0
      8862 MEMB     67       POPC     C311     CTL2    -0.180000       12.0110           0
      8863 MEMB     67       POPC     H11X     HAL2     0.900000E-01   1.00800           0
      8864 MEMB     67       POPC     H11Y     HAL2     0.900000E-01   1.00800           0
      8865 MEMB     67       POPC     C312     CTL2    -0.180000       12.0110           0
      8866 MEMB     67       POPC     H12X     HAL2     0.900000E-01   1.00800           0
      8867 MEMB     67       POPC     H12Y     HAL2     0.900000E-01   1.00800           0
      8868 MEMB     67       POPC     C313     CTL2    -0.180000       12.0110           0
      8869 MEMB     67       POPC     H13X     HAL2     0.900000E-01   1.00800           0
      8870 MEMB     67       POPC     H13Y     HAL2     0.900000E-01   1.00800           0
      8871 MEMB     67       POPC     C314     CTL2    -0.180000       12.0110           0
      8872 MEMB     67       POPC     H14X     HAL2     0.900000E-01   1.00800           0
      8873 MEMB     67       POPC     H14Y     HAL2     0.900000E-01   1.00800           0
      8874 MEMB     67       POPC     C315     CTL2    -0.180000       12.0110           0
      8875 MEMB     67       POPC     H15X     HAL2     0.900000E-01   1.00800           0
      8876 MEMB     67       POPC     H15Y     HAL2     0.900000E-01   1.00800           0
      8877 MEMB     67       POPC     C316     CTL3    -0.270000       12.0110           0
      8878 MEMB     67       POPC     H16X     HAL3     0.900000E-01   1.00800           0
      8879 MEMB     67       POPC     H16Y     HAL3     0.900000E-01   1.00800           0
      8880 MEMB     67       POPC     H16Z     HAL3     0.900000E-01   1.00800           0
      8881 MEMB     68       POPC     N        NTL     -0.600000       14.0070           0
      8882 MEMB     68       POPC     C12      CTL2    -0.100000       12.0110           0
      8883 MEMB     68       POPC     H12A     HL       0.250000       1.00800           0
      8884 MEMB     68       POPC     H12B     HL       0.250000       1.00800           0
      8885 MEMB     68       POPC     C13      CTL5    -0.350000       12.0110           0
      8886 MEMB     68       POPC     H13A     HL       0.250000       1.00800           0
      8887 MEMB     68       POPC     H13B     HL       0.250000       1.00800           0
      8888 MEMB     68       POPC     H13C     HL       0.250000       1.00800           0
      8889 MEMB     68       POPC     C14      CTL5    -0.350000       12.0110           0
      8890 MEMB     68       POPC     H14A     HL       0.250000       1.00800           0
      8891 MEMB     68       POPC     H14B     HL       0.250000       1.00800           0
      8892 MEMB     68       POPC     H14C     HL       0.250000       1.00800           0
      8893 MEMB     68       POPC     C15      CTL5    -0.350000       12.0110           0
      8894 MEMB     68       POPC     H15A     HL       0.250000       1.00800           0
      8895 MEMB     68       POPC     H15B     HL       0.250000       1.00800           0
      8896 MEMB     68       POPC     H15C     HL       0.250000       1.00800           0
      8897 MEMB     68       POPC     C11      CTL2    -0.800000E-01   12.0110           0
      8898 MEMB     68       POPC     H11A     HAL2     0.900000E-01   1.00800           0
      8899 MEMB     68       POPC     H11B     HAL2     0.900000E-01   1.00800           0
      8900 MEMB     68       POPC     P        PL        1.50000       30.9740           0
      8901 MEMB     68       POPC     O13      O2L     -0.780000       15.9994           0
      8902 MEMB     68       POPC     O14      O2L     -0.780000       15.9994           0
      8903 MEMB     68       POPC     O12      OSLP    -0.570000       15.9994           0
      8904 MEMB     68       POPC     O11      OSLP    -0.570000       15.9994           0
      8905 MEMB     68       POPC     C1       CTL2    -0.800000E-01   12.0110           0
      8906 MEMB     68       POPC     HA       HAL2     0.900000E-01   1.00800           0
      8907 MEMB     68       POPC     HB       HAL2     0.900000E-01   1.00800           0
      8908 MEMB     68       POPC     C2       CTL1     0.170000       12.0110           0
      8909 MEMB     68       POPC     HS       HAL1     0.900000E-01   1.00800           0
      8910 MEMB     68       POPC     O21      OSL     -0.490000       15.9994           0
      8911 MEMB     68       POPC     C21      CL       0.900000       12.0110           0
      8912 MEMB     68       POPC     O22      OBL     -0.630000       15.9994           0
      8913 MEMB     68       POPC     C22      CTL2    -0.220000       12.0110           0
      8914 MEMB     68       POPC     H2R      HAL2     0.900000E-01   1.00800           0
      8915 MEMB     68       POPC     H2S      HAL2     0.900000E-01   1.00800           0
      8916 MEMB     68       POPC     C3       CTL2     0.800000E-01   12.0110           0
      8917 MEMB     68       POPC     HX       HAL2     0.900000E-01   1.00800           0
      8918 MEMB     68       POPC     HY       HAL2     0.900000E-01   1.00800           0
      8919 MEMB     68       POPC     O31      OSL     -0.490000       15.9994           0
      8920 MEMB     68       POPC     C31      CL       0.900000       12.0110           0
      8921 MEMB     68       POPC     O32      OBL     -0.630000       15.9994           0
      8922 MEMB     68       POPC     C32      CTL2    -0.220000       12.0110           0
      8923 MEMB     68       POPC     H2X      HAL2     0.900000E-01   1.00800           0
      8924 MEMB     68       POPC     H2Y      HAL2     0.900000E-01   1.00800           0
      8925 MEMB     68       POPC     C23      CTL2    -0.180000       12.0110           0
      8926 MEMB     68       POPC     H3R      HAL2     0.900000E-01   1.00800           0
      8927 MEMB     68       POPC     H3S      HAL2     0.900000E-01   1.00800           0
      8928 MEMB     68       POPC     C24      CTL2    -0.180000       12.0110           0
      8929 MEMB     68       POPC     H4R      HAL2     0.900000E-01   1.00800           0
      8930 MEMB     68       POPC     H4S      HAL2     0.900000E-01   1.00800           0
      8931 MEMB     68       POPC     C25      CTL2    -0.180000       12.0110           0
      8932 MEMB     68       POPC     H5R      HAL2     0.900000E-01   1.00800           0
      8933 MEMB     68       POPC     H5S      HAL2     0.900000E-01   1.00800           0
      8934 MEMB     68       POPC     C26      CTL2    -0.180000       12.0110           0
      8935 MEMB     68       POPC     H6R      HAL2     0.900000E-01   1.00800           0
      8936 MEMB     68       POPC     H6S      HAL2     0.900000E-01   1.00800           0
      8937 MEMB     68       POPC     C27      CTL2    -0.180000       12.0110           0
      8938 MEMB     68       POPC     H7R      HAL2     0.900000E-01   1.00800           0
      8939 MEMB     68       POPC     H7S      HAL2     0.900000E-01   1.00800           0
      8940 MEMB     68       POPC     C28      CTL2    -0.180000       12.0110           0
      8941 MEMB     68       POPC     H8R      HAL2     0.900000E-01   1.00800           0
      8942 MEMB     68       POPC     H8S      HAL2     0.900000E-01   1.00800           0
      8943 MEMB     68       POPC     C29      CEL1    -0.150000       12.0110           0
      8944 MEMB     68       POPC     H91      HEL1     0.150000       1.00800           0
      8945 MEMB     68       POPC     C210     CEL1    -0.150000       12.0110           0
      8946 MEMB     68       POPC     H101     HEL1     0.150000       1.00800           0
      8947 MEMB     68       POPC     C211     CTL2    -0.180000       12.0110           0
      8948 MEMB     68       POPC     H11R     HAL2     0.900000E-01   1.00800           0
      8949 MEMB     68       POPC     H11S     HAL2     0.900000E-01   1.00800           0
      8950 MEMB     68       POPC     C212     CTL2    -0.180000       12.0110           0
      8951 MEMB     68       POPC     H12R     HAL2     0.900000E-01   1.00800           0
      8952 MEMB     68       POPC     H12S     HAL2     0.900000E-01   1.00800           0
      8953 MEMB     68       POPC     C213     CTL2    -0.180000       12.0110           0
      8954 MEMB     68       POPC     H13R     HAL2     0.900000E-01   1.00800           0
      8955 MEMB     68       POPC     H13S     HAL2     0.900000E-01   1.00800           0
      8956 MEMB     68       POPC     C214     CTL2    -0.180000       12.0110           0
      8957 MEMB     68       POPC     H14R     HAL2     0.900000E-01   1.00800           0
      8958 MEMB     68       POPC     H14S     HAL2     0.900000E-01   1.00800           0
      8959 MEMB     68       POPC     C215     CTL2    -0.180000       12.0110           0
      8960 MEMB     68       POPC     H15R     HAL2     0.900000E-01   1.00800           0
      8961 MEMB     68       POPC     H15S     HAL2     0.900000E-01   1.00800           0
      8962 MEMB     68       POPC     C216     CTL2    -0.180000       12.0110           0
      8963 MEMB     68       POPC     H16R     HAL2     0.900000E-01   1.00800           0
      8964 MEMB     68       POPC     H16S     HAL2     0.900000E-01   1.00800           0
      8965 MEMB     68       POPC     C217     CTL2    -0.180000       12.0110           0
      8966 MEMB     68       POPC     H17R     HAL2     0.900000E-01   1.00800           0
      8967 MEMB     68       POPC     H17S     HAL2     0.900000E-01   1.00800           0
      8968 MEMB     68       POPC     C218     CTL3    -0.270000       12.0110           0
      8969 MEMB     68       POPC     H18R     HAL3     0.900000E-01   1.00800           0
      8970 MEMB     68       POPC     H18S     HAL3     0.900000E-01   1.00800           0
      8971 MEMB     68       POPC     H18T     HAL3     0.900000E-01   1.00800           0
      8972 MEMB     68       POPC     C33      CTL2    -0.180000       12.0110           0
      8973 MEMB     68       POPC     H3X      HAL2     0.900000E-01   1.00800           0
      8974 MEMB     68       POPC     H3Y      HAL2     0.900000E-01   1.00800           0
      8975 MEMB     68       POPC     C34      CTL2    -0.180000       12.0110           0
      8976 MEMB     68       POPC     H4X      HAL2     0.900000E-01   1.00800           0
      8977 MEMB     68       POPC     H4Y      HAL2     0.900000E-01   1.00800           0
      8978 MEMB     68       POPC     C35      CTL2    -0.180000       12.0110           0
      8979 MEMB     68       POPC     H5X      HAL2     0.900000E-01   1.00800           0
      8980 MEMB     68       POPC     H5Y      HAL2     0.900000E-01   1.00800           0
      8981 MEMB     68       POPC     C36      CTL2    -0.180000       12.0110           0
      8982 MEMB     68       POPC     H6X      HAL2     0.900000E-01   1.00800           0
      8983 MEMB     68       POPC     H6Y      HAL2     0.900000E-01   1.00800           0
      8984 MEMB     68       POPC     C37      CTL2    -0.180000       12.0110           0
      8985 MEMB     68       POPC     H7X      HAL2     0.900000E-01   1.00800           0
      8986 MEMB     68       POPC     H7Y      HAL2     0.900000E-01   1.00800           0
      8987 MEMB     68       POPC     C38      CTL2    -0.180000       12.0110           0
      8988 MEMB     68       POPC     H8X      HAL2     0.900000E-01   1.00800           0
      8989 MEMB     68       POPC     H8Y      HAL2     0.900000E-01   1.00800           0
      8990 MEMB     68       POPC     C39      CTL2    -0.180000       12.0110           0
      8991 MEMB     68       POPC     H9X      HAL2     0.900000E-01   1.00800           0
      8992 MEMB     68       POPC     H9Y      HAL2     0.900000E-01   1.00800           0
      8993 MEMB     68       POPC     C310     CTL2    -0.180000       12.0110           0
      8994 MEMB     68       POPC     H10X     HAL2     0.900000E-01   1.00800           0
      8995 MEMB     68       POPC     H10Y     HAL2     0.900000E-01   1.00800           0
      8996 MEMB     68       POPC     C311     CTL2    -0.180000       12.0110           0
      8997 MEMB     68       POPC     H11X     HAL2     0.900000E-01   1.00800           0
      8998 MEMB     68       POPC     H11Y     HAL2     0.900000E-01   1.00800           0
      8999 MEMB     68       POPC     C312     CTL2    -0.180000       12.0110           0
      9000 MEMB     68       POPC     H12X     HAL2     0.900000E-01   1.00800           0
      9001 MEMB     68       POPC     H12Y     HAL2     0.900000E-01   1.00800           0
      9002 MEMB     68       POPC     C313     CTL2    -0.180000       12.0110           0
      9003 MEMB     68       POPC     H13X     HAL2     0.900000E-01   1.00800           0
      9004 MEMB     68       POPC     H13Y     HAL2     0.900000E-01   1.00800           0
      9005 MEMB     68       POPC     C314     CTL2    -0.180000       12.0110           0
      9006 MEMB     68       POPC     H14X     HAL2     0.900000E-01   1.00800           0
      9007 MEMB     68       POPC     H14Y     HAL2     0.900000E-01   1.00800           0
      9008 MEMB     68       POPC     C315     CTL2    -0.180000       12.0110           0
      9009 MEMB     68       POPC     H15X     HAL2     0.900000E-01   1.00800           0
      9010 MEMB     68       POPC     H15Y     HAL2     0.900000E-01   1.00800           0
      9011 MEMB     68       POPC     C316     CTL3    -0.270000       12.0110           0
      9012 MEMB     68       POPC     H16X     HAL3     0.900000E-01   1.00800           0
      9013 MEMB     68       POPC     H16Y     HAL3     0.900000E-01   1.00800           0
      9014 MEMB     68       POPC     H16Z     HAL3     0.900000E-01   1.00800           0
      9015 MEMB     69       POPC     N        NTL     -0.600000       14.0070           0
      9016 MEMB     69       POPC     C12      CTL2    -0.100000       12.0110           0
      9017 MEMB     69       POPC     H12A     HL       0.250000       1.00800           0
      9018 MEMB     69       POPC     H12B     HL       0.250000       1.00800           0
      9019 MEMB     69       POPC     C13      CTL5    -0.350000       12.0110           0
      9020 MEMB     69       POPC     H13A     HL       0.250000       1.00800           0
      9021 MEMB     69       POPC     H13B     HL       0.250000       1.00800           0
      9022 MEMB     69       POPC     H13C     HL       0.250000       1.00800           0
      9023 MEMB     69       POPC     C14      CTL5    -0.350000       12.0110           0
      9024 MEMB     69       POPC     H14A     HL       0.250000       1.00800           0
      9025 MEMB     69       POPC     H14B     HL       0.250000       1.00800           0
      9026 MEMB     69       POPC     H14C     HL       0.250000       1.00800           0
      9027 MEMB     69       POPC     C15      CTL5    -0.350000       12.0110           0
      9028 MEMB     69       POPC     H15A     HL       0.250000       1.00800           0
      9029 MEMB     69       POPC     H15B     HL       0.250000       1.00800           0
      9030 MEMB     69       POPC     H15C     HL       0.250000       1.00800           0
      9031 MEMB     69       POPC     C11      CTL2    -0.800000E-01   12.0110           0
      9032 MEMB     69       POPC     H11A     HAL2     0.900000E-01   1.00800           0
      9033 MEMB     69       POPC     H11B     HAL2     0.900000E-01   1.00800           0
      9034 MEMB     69       POPC     P        PL        1.50000       30.9740           0
      9035 MEMB     69       POPC     O13      O2L     -0.780000       15.9994           0
      9036 MEMB     69       POPC     O14      O2L     -0.780000       15.9994           0
      9037 MEMB     69       POPC     O12      OSLP    -0.570000       15.9994           0
      9038 MEMB     69       POPC     O11      OSLP    -0.570000       15.9994           0
      9039 MEMB     69       POPC     C1       CTL2    -0.800000E-01   12.0110           0
      9040 MEMB     69       POPC     HA       HAL2     0.900000E-01   1.00800           0
      9041 MEMB     69       POPC     HB       HAL2     0.900000E-01   1.00800           0
      9042 MEMB     69       POPC     C2       CTL1     0.170000       12.0110           0
      9043 MEMB     69       POPC     HS       HAL1     0.900000E-01   1.00800           0
      9044 MEMB     69       POPC     O21      OSL     -0.490000       15.9994           0
      9045 MEMB     69       POPC     C21      CL       0.900000       12.0110           0
      9046 MEMB     69       POPC     O22      OBL     -0.630000       15.9994           0
      9047 MEMB     69       POPC     C22      CTL2    -0.220000       12.0110           0
      9048 MEMB     69       POPC     H2R      HAL2     0.900000E-01   1.00800           0
      9049 MEMB     69       POPC     H2S      HAL2     0.900000E-01   1.00800           0
      9050 MEMB     69       POPC     C3       CTL2     0.800000E-01   12.0110           0
      9051 MEMB     69       POPC     HX       HAL2     0.900000E-01   1.00800           0
      9052 MEMB     69       POPC     HY       HAL2     0.900000E-01   1.00800           0
      9053 MEMB     69       POPC     O31      OSL     -0.490000       15.9994           0
      9054 MEMB     69       POPC     C31      CL       0.900000       12.0110           0
      9055 MEMB     69       POPC     O32      OBL     -0.630000       15.9994           0
      9056 MEMB     69       POPC     C32      CTL2    -0.220000       12.0110           0
      9057 MEMB     69       POPC     H2X      HAL2     0.900000E-01   1.00800           0
      9058 MEMB     69       POPC     H2Y      HAL2     0.900000E-01   1.00800           0
      9059 MEMB     69       POPC     C23      CTL2    -0.180000       12.0110           0
      9060 MEMB     69       POPC     H3R      HAL2     0.900000E-01   1.00800           0
      9061 MEMB     69       POPC     H3S      HAL2     0.900000E-01   1.00800           0
      9062 MEMB     69       POPC     C24      CTL2    -0.180000       12.0110           0
      9063 MEMB     69       POPC     H4R      HAL2     0.900000E-01   1.00800           0
      9064 MEMB     69       POPC     H4S      HAL2     0.900000E-01   1.00800           0
      9065 MEMB     69       POPC     C25      CTL2    -0.180000       12.0110           0
      9066 MEMB     69       POPC     H5R      HAL2     0.900000E-01   1.00800           0
      9067 MEMB     69       POPC     H5S      HAL2     0.900000E-01   1.00800           0
      9068 MEMB     69       POPC     C26      CTL2    -0.180000       12.0110           0
      9069 MEMB     69       POPC     H6R      HAL2     0.900000E-01   1.00800           0
      9070 MEMB     69       POPC     H6S      HAL2     0.900000E-01   1.00800           0
      9071 MEMB     69       POPC     C27      CTL2    -0.180000       12.0110           0
      9072 MEMB     69       POPC     H7R      HAL2     0.900000E-01   1.00800           0
      9073 MEMB     69       POPC     H7S      HAL2     0.900000E-01   1.00800           0
      9074 MEMB     69       POPC     C28      CTL2    -0.180000       12.0110           0
      9075 MEMB     69       POPC     H8R      HAL2     0.900000E-01   1.00800           0
      9076 MEMB     69       POPC     H8S      HAL2     0.900000E-01   1.00800           0
      9077 MEMB     69       POPC     C29      CEL1    -0.150000       12.0110           0
      9078 MEMB     69       POPC     H91      HEL1     0.150000       1.00800           0
      9079 MEMB     69       POPC     C210     CEL1    -0.150000       12.0110           0
      9080 MEMB     69       POPC     H101     HEL1     0.150000       1.00800           0
      9081 MEMB     69       POPC     C211     CTL2    -0.180000       12.0110           0
      9082 MEMB     69       POPC     H11R     HAL2     0.900000E-01   1.00800           0
      9083 MEMB     69       POPC     H11S     HAL2     0.900000E-01   1.00800           0
      9084 MEMB     69       POPC     C212     CTL2    -0.180000       12.0110           0
      9085 MEMB     69       POPC     H12R     HAL2     0.900000E-01   1.00800           0
      9086 MEMB     69       POPC     H12S     HAL2     0.900000E-01   1.00800           0
      9087 MEMB     69       POPC     C213     CTL2    -0.180000       12.0110           0
      9088 MEMB     69       POPC     H13R     HAL2     0.900000E-01   1.00800           0
      9089 MEMB     69       POPC     H13S     HAL2     0.900000E-01   1.00800           0
      9090 MEMB     69       POPC     C214     CTL2    -0.180000       12.0110           0
      9091 MEMB     69       POPC     H14R     HAL2     0.900000E-01   1.00800           0
      9092 MEMB     69       POPC     H14S     HAL2     0.900000E-01   1.00800           0
      9093 MEMB     69       POPC     C215     CTL2    -0.180000       12.0110           0
      9094 MEMB     69       POPC     H15R     HAL2     0.900000E-01   1.00800           0
      9095 MEMB     69       POPC     H15S     HAL2     0.900000E-01   1.00800           0
      9096 MEMB     69       POPC     C216     CTL2    -0.180000       12.0110           0
      9097 MEMB     69       POPC     H16R     HAL2     0.900000E-01   1.00800           0
      9098 MEMB     69       POPC     H16S     HAL2     0.900000E-01   1.00800           0
      9099 MEMB     69       POPC     C217     CTL2    -0.180000       12.0110           0
      9100 MEMB     69       POPC     H17R     HAL2     0.900000E-01   1.00800           0
      9101 MEMB     69       POPC     H17S     HAL2     0.900000E-01   1.00800           0
      9102 MEMB     69       POPC     C218     CTL3    -0.270000       12.0110           0
      9103 MEMB     69       POPC     H18R     HAL3     0.900000E-01   1.00800           0
      9104 MEMB     69       POPC     H18S     HAL3     0.900000E-01   1.00800           0
      9105 MEMB     69       POPC     H18T     HAL3     0.900000E-01   1.00800           0
      9106 MEMB     69       POPC     C33      CTL2    -0.180000       12.0110           0
      9107 MEMB     69       POPC     H3X      HAL2     0.900000E-01   1.00800           0
      9108 MEMB     69       POPC     H3Y      HAL2     0.900000E-01   1.00800           0
      9109 MEMB     69       POPC     C34      CTL2    -0.180000       12.0110           0
      9110 MEMB     69       POPC     H4X      HAL2     0.900000E-01   1.00800           0
      9111 MEMB     69       POPC     H4Y      HAL2     0.900000E-01   1.00800           0
      9112 MEMB     69       POPC     C35      CTL2    -0.180000       12.0110           0
      9113 MEMB     69       POPC     H5X      HAL2     0.900000E-01   1.00800           0
      9114 MEMB     69       POPC     H5Y      HAL2     0.900000E-01   1.00800           0
      9115 MEMB     69       POPC     C36      CTL2    -0.180000       12.0110           0
      9116 MEMB     69       POPC     H6X      HAL2     0.900000E-01   1.00800           0
      9117 MEMB     69       POPC     H6Y      HAL2     0.900000E-01   1.00800           0
      9118 MEMB     69       POPC     C37      CTL2    -0.180000       12.0110           0
      9119 MEMB     69       POPC     H7X      HAL2     0.900000E-01   1.00800           0
      9120 MEMB     69       POPC     H7Y      HAL2     0.900000E-01   1.00800           0
      9121 MEMB     69       POPC     C38      CTL2    -0.180000       12.0110           0
      9122 MEMB     69       POPC     H8X      HAL2     0.900000E-01   1.00800           0
      9123 MEMB     69       POPC     H8Y      HAL2     0.900000E-01   1.00800           0
      9124 MEMB     69       POPC     C39      CTL2    -0.180000       12.0110           0
      9125 MEMB     69       POPC     H9X      HAL2     0.900000E-01   1.00800           0
      9126 MEMB     69       POPC     H9Y      HAL2     0.900000E-01   1.00800           0
      9127 MEMB     69       POPC     C310     CTL2    -0.180000       12.0110           0
      9128 MEMB     69       POPC     H10X     HAL2     0.900000E-01   1.00800           0
      9129 MEMB     69       POPC     H10Y     HAL2     0.900000E-01   1.00800           0
      9130 MEMB     69       POPC     C311     CTL2    -0.180000       12.0110           0
      9131 MEMB     69       POPC     H11X     HAL2     0.900000E-01   1.00800           0
      9132 MEMB     69       POPC     H11Y     HAL2     0.900000E-01   1.00800           0
      9133 MEMB     69       POPC     C312     CTL2    -0.180000       12.0110           0
      9134 MEMB     69       POPC     H12X     HAL2     0.900000E-01   1.00800           0
      9135 MEMB     69       POPC     H12Y     HAL2     0.900000E-01   1.00800           0
      9136 MEMB     69       POPC     C313     CTL2    -0.180000       12.0110           0
      9137 MEMB     69       POPC     H13X     HAL2     0.900000E-01   1.00800           0
      9138 MEMB     69       POPC     H13Y     HAL2     0.900000E-01   1.00800           0
      9139 MEMB     69       POPC     C314     CTL2    -0.180000       12.0110           0
      9140 MEMB     69       POPC     H14X     HAL2     0.900000E-01   1.00800           0
      9141 MEMB     69       POPC     H14Y     HAL2     0.900000E-01   1.00800           0
      9142 MEMB     69       POPC     C315     CTL2    -0.180000       12.0110           0
      9143 MEMB     69       POPC     H15X     HAL2     0.900000E-01   1.00800           0
      9144 MEMB     69       POPC     H15Y     HAL2     0.900000E-01   1.00800           0
      9145 MEMB     69       POPC     C316     CTL3    -0.270000       12.0110           0
      9146 MEMB     69       POPC     H16X     HAL3     0.900000E-01   1.00800           0
      9147 MEMB     69       POPC     H16Y     HAL3     0.900000E-01   1.00800           0
      9148 MEMB     69       POPC     H16Z     HAL3     0.900000E-01   1.00800           0
      9149 MEMB     70       POPC     N        NTL     -0.600000       14.0070           0
      9150 MEMB     70       POPC     C12      CTL2    -0.100000       12.0110           0
      9151 MEMB     70       POPC     H12A     HL       0.250000       1.00800           0
      9152 MEMB     70       POPC     H12B     HL       0.250000       1.00800           0
      9153 MEMB     70       POPC     C13      CTL5    -0.350000       12.0110           0
      9154 MEMB     70       POPC     H13A     HL       0.250000       1.00800           0
      9155 MEMB     70       POPC     H13B     HL       0.250000       1.00800           0
      9156 MEMB     70       POPC     H13C     HL       0.250000       1.00800           0
      9157 MEMB     70       POPC     C14      CTL5    -0.350000       12.0110           0
      9158 MEMB     70       POPC     H14A     HL       0.250000       1.00800           0
      9159 MEMB     70       POPC     H14B     HL       0.250000       1.00800           0
      9160 MEMB     70       POPC     H14C     HL       0.250000       1.00800           0
      9161 MEMB     70       POPC     C15      CTL5    -0.350000       12.0110           0
      9162 MEMB     70       POPC     H15A     HL       0.250000       1.00800           0
      9163 MEMB     70       POPC     H15B     HL       0.250000       1.00800           0
      9164 MEMB     70       POPC     H15C     HL       0.250000       1.00800           0
      9165 MEMB     70       POPC     C11      CTL2    -0.800000E-01   12.0110           0
      9166 MEMB     70       POPC     H11A     HAL2     0.900000E-01   1.00800           0
      9167 MEMB     70       POPC     H11B     HAL2     0.900000E-01   1.00800           0
      9168 MEMB     70       POPC     P        PL        1.50000       30.9740           0
      9169 MEMB     70       POPC     O13      O2L     -0.780000       15.9994           0
      9170 MEMB     70       POPC     O14      O2L     -0.780000       15.9994           0
      9171 MEMB     70       POPC     O12      OSLP    -0.570000       15.9994           0
      9172 MEMB     70       POPC     O11      OSLP    -0.570000       15.9994           0
      9173 MEMB     70       POPC     C1       CTL2    -0.800000E-01   12.0110           0
      9174 MEMB     70       POPC     HA       HAL2     0.900000E-01   1.00800           0
      9175 MEMB     70       POPC     HB       HAL2     0.900000E-01   1.00800           0
      9176 MEMB     70       POPC     C2       CTL1     0.170000       12.0110           0
      9177 MEMB     70       POPC     HS       HAL1     0.900000E-01   1.00800           0
      9178 MEMB     70       POPC     O21      OSL     -0.490000       15.9994           0
      9179 MEMB     70       POPC     C21      CL       0.900000       12.0110           0
      9180 MEMB     70       POPC     O22      OBL     -0.630000       15.9994           0
      9181 MEMB     70       POPC     C22      CTL2    -0.220000       12.0110           0
      9182 MEMB     70       POPC     H2R      HAL2     0.900000E-01   1.00800           0
      9183 MEMB     70       POPC     H2S      HAL2     0.900000E-01   1.00800           0
      9184 MEMB     70       POPC     C3       CTL2     0.800000E-01   12.0110           0
      9185 MEMB     70       POPC     HX       HAL2     0.900000E-01   1.00800           0
      9186 MEMB     70       POPC     HY       HAL2     0.900000E-01   1.00800           0
      9187 MEMB     70       POPC     O31      OSL     -0.490000       15.9994           0
      9188 MEMB     70       POPC     C31      CL       0.900000       12.0110           0
      9189 MEMB     70       POPC     O32      OBL     -0.630000       15.9994           0
      9190 MEMB     70       POPC     C32      CTL2    -0.220000       12.0110           0
      9191 MEMB     70       POPC     H2X      HAL2     0.900000E-01   1.00800           0
      9192 MEMB     70       POPC     H2Y      HAL2     0.900000E-01   1.00800           0
      9193 MEMB     70       POPC     C23      CTL2    -0.180000       12.0110           0
      9194 MEMB     70       POPC     H3R      HAL2     0.900000E-01   1.00800           0
      9195 MEMB     70       POPC     H3S      HAL2     0.900000E-01   1.00800           0
      9196 MEMB     70       POPC     C24      CTL2    -0.180000       12.0110           0
      9197 MEMB     70       POPC     H4R      HAL2     0.900000E-01   1.00800           0
      9198 MEMB     70       POPC     H4S      HAL2     0.900000E-01   1.00800           0
      9199 MEMB     70       POPC     C25      CTL2    -0.180000       12.0110           0
      9200 MEMB     70       POPC     H5R      HAL2     0.900000E-01   1.00800           0
      9201 MEMB     70       POPC     H5S      HAL2     0.900000E-01   1.00800           0
      9202 MEMB     70       POPC     C26      CTL2    -0.180000       12.0110           0
      9203 MEMB     70       POPC     H6R      HAL2     0.900000E-01   1.00800           0
      9204 MEMB     70       POPC     H6S      HAL2     0.900000E-01   1.00800           0
      9205 MEMB     70       POPC     C27      CTL2    -0.180000       12.0110           0
      9206 MEMB     70       POPC     H7R      HAL2     0.900000E-01   1.00800           0
      9207 MEMB     70       POPC     H7S      HAL2     0.900000E-01   1.00800           0
      9208 MEMB     70       POPC     C28      CTL2    -0.180000       12.0110           0
      9209 MEMB     70       POPC     H8R      HAL2     0.900000E-01   1.00800           0
      9210 MEMB     70       POPC     H8S      HAL2     0.900000E-01   1.00800           0
      9211 MEMB     70       POPC     C29      CEL1    -0.150000       12.0110           0
      9212 MEMB     70       POPC     H91      HEL1     0.150000       1.00800           0
      9213 MEMB     70       POPC     C210     CEL1    -0.150000       12.0110           0
      9214 MEMB     70       POPC     H101     HEL1     0.150000       1.00800           0
      9215 MEMB     70       POPC     C211     CTL2    -0.180000       12.0110           0
      9216 MEMB     70       POPC     H11R     HAL2     0.900000E-01   1.00800           0
      9217 MEMB     70       POPC     H11S     HAL2     0.900000E-01   1.00800           0
      9218 MEMB     70       POPC     C212     CTL2    -0.180000       12.0110           0
      9219 MEMB     70       POPC     H12R     HAL2     0.900000E-01   1.00800           0
      9220 MEMB     70       POPC     H12S     HAL2     0.900000E-01   1.00800           0
      9221 MEMB     70       POPC     C213     CTL2    -0.180000       12.0110           0
      9222 MEMB     70       POPC     H13R     HAL2     0.900000E-01   1.00800           0
      9223 MEMB     70       POPC     H13S     HAL2     0.900000E-01   1.00800           0
      9224 MEMB     70       POPC     C214     CTL2    -0.180000       12.0110           0
      9225 MEMB     70       POPC     H14R     HAL2     0.900000E-01   1.00800           0
      9226 MEMB     70       POPC     H14S     HAL2     0.900000E-01   1.00800           0
      9227 MEMB     70       POPC     C215     CTL2    -0.180000       12.0110           0
      9228 MEMB     70       POPC     H15R     HAL2     0.900000E-01   1.00800           0
      9229 MEMB     70       POPC     H15S     HAL2     0.900000E-01   1.00800           0
      9230 MEMB     70       POPC     C216     CTL2    -0.180000       12.0110           0
      9231 MEMB     70       POPC     H16R     HAL2     0.900000E-01   1.00800           0
      9232 MEMB     70       POPC     H16S     HAL2     0.900000E-01   1.00800           0
      9233 MEMB     70       POPC     C217     CTL2    -0.180000       12.0110           0
      9234 MEMB     70       POPC     H17R     HAL2     0.900000E-01   1.00800           0
      9235 MEMB     70       POPC     H17S     HAL2     0.900000E-01   1.00800           0
      9236 MEMB     70       POPC     C218     CTL3    -0.270000       12.0110           0
      9237 MEMB     70       POPC     H18R     HAL3     0.900000E-01   1.00800           0
      9238 MEMB     70       POPC     H18S     HAL3     0.900000E-01   1.00800           0
      9239 MEMB     70       POPC     H18T     HAL3     0.900000E-01   1.00800           0
      9240 MEMB     70       POPC     C33      CTL2    -0.180000       12.0110           0
      9241 MEMB     70       POPC     H3X      HAL2     0.900000E-01   1.00800           0
      9242 MEMB     70       POPC     H3Y      HAL2     0.900000E-01   1.00800           0
      9243 MEMB     70       POPC     C34      CTL2    -0.180000       12.0110           0
      9244 MEMB     70       POPC     H4X      HAL2     0.900000E-01   1.00800           0
      9245 MEMB     70       POPC     H4Y      HAL2     0.900000E-01   1.00800           0
      9246 MEMB     70       POPC     C35      CTL2    -0.180000       12.0110           0
      9247 MEMB     70       POPC     H5X      HAL2     0.900000E-01   1.00800           0
      9248 MEMB     70       POPC     H5Y      HAL2     0.900000E-01   1.00800           0
      9249 MEMB     70       POPC     C36      CTL2    -0.180000       12.0110           0
      9250 MEMB     70       POPC     H6X      HAL2     0.900000E-01   1.00800           0
      9251 MEMB     70       POPC     H6Y      HAL2     0.900000E-01   1.00800           0
      9252 MEMB     70       POPC     C37      CTL2    -0.180000       12.0110           0
      9253 MEMB     70       POPC     H7X      HAL2     0.900000E-01   1.00800           0
      9254 MEMB     70       POPC     H7Y      HAL2     0.900000E-01   1.00800           0
      9255 MEMB     70       POPC     C38      CTL2    -0.180000       12.0110           0
      9256 MEMB     70       POPC     H8X      HAL2     0.900000E-01   1.00800           0
      9257 MEMB     70       POPC     H8Y      HAL2     0.900000E-01   1.00800           0
      9258 MEMB     70       POPC     C39      CTL2    -0.180000       12.0110           0
      9259 MEMB     70       POPC     H9X      HAL2     0.900000E-01   1.00800           0
      9260 MEMB     70       POPC     H9Y      HAL2     0.900000E-01   1.00800           0
      9261 MEMB     70       POPC     C310     CTL2    -0.180000       12.0110           0
      9262 MEMB     70       POPC     H10X     HAL2     0.900000E-01   1.00800           0
      9263 MEMB     70       POPC     H10Y     HAL2     0.900000E-01   1.00800           0
      9264 MEMB     70       POPC     C311     CTL2    -0.180000       12.0110           0
      9265 MEMB     70       POPC     H11X     HAL2     0.900000E-01   1.00800           0
      9266 MEMB     70       POPC     H11Y     HAL2     0.900000E-01   1.00800           0
      9267 MEMB     70       POPC     C312     CTL2    -0.180000       12.0110           0
      9268 MEMB     70       POPC     H12X     HAL2     0.900000E-01   1.00800           0
      9269 MEMB     70       POPC     H12Y     HAL2     0.900000E-01   1.00800           0
      9270 MEMB     70       POPC     C313     CTL2    -0.180000       12.0110           0
      9271 MEMB     70       POPC     H13X     HAL2     0.900000E-01   1.00800           0
      9272 MEMB     70       POPC     H13Y     HAL2     0.900000E-01   1.00800           0
      9273 MEMB     70       POPC     C314     CTL2    -0.180000       12.0110           0
      9274 MEMB     70       POPC     H14X     HAL2     0.900000E-01   1.00800           0
      9275 MEMB     70       POPC     H14Y     HAL2     0.900000E-01   1.00800           0
      9276 MEMB     70       POPC     C315     CTL2    -0.180000       12.0110           0
      9277 MEMB     70       POPC     H15X     HAL2     0.900000E-01   1.00800           0
      9278 MEMB     70       POPC     H15Y     HAL2     0.900000E-01   1.00800           0
      9279 MEMB     70       POPC     C316     CTL3    -0.270000       12.0110           0
      9280 MEMB     70       POPC     H16X     HAL3     0.900000E-01   1.00800           0
      9281 MEMB     70       POPC     H16Y     HAL3     0.900000E-01   1.00800           0
      9282 MEMB     70       POPC     H16Z     HAL3     0.900000E-01   1.00800           0
      9283 MEMB     71       POPC     N        NTL     -0.600000       14.0070           0
      9284 MEMB     71       POPC     C12      CTL2    -0.100000       12.0110           0
      9285 MEMB     71       POPC     H12A     HL       0.250000       1.00800           0
      9286 MEMB     71       POPC     H12B     HL       0.250000       1.00800           0
      9287 MEMB     71       POPC     C13      CTL5    -0.350000       12.0110           0
      9288 MEMB     71       POPC     H13A     HL       0.250000       1.00800           0
      9289 MEMB     71       POPC     H13B     HL       0.250000       1.00800           0
      9290 MEMB     71       POPC     H13C     HL       0.250000       1.00800           0
      9291 MEMB     71       POPC     C14      CTL5    -0.350000       12.0110           0
      9292 MEMB     71       POPC     H14A     HL       0.250000       1.00800           0
      9293 MEMB     71       POPC     H14B     HL       0.250000       1.00800           0
      9294 MEMB     71       POPC     H14C     HL       0.250000       1.00800           0
      9295 MEMB     71       POPC     C15      CTL5    -0.350000       12.0110           0
      9296 MEMB     71       POPC     H15A     HL       0.250000       1.00800           0
      9297 MEMB     71       POPC     H15B     HL       0.250000       1.00800           0
      9298 MEMB     71       POPC     H15C     HL       0.250000       1.00800           0
      9299 MEMB     71       POPC     C11      CTL2    -0.800000E-01   12.0110           0
      9300 MEMB     71       POPC     H11A     HAL2     0.900000E-01   1.00800           0
      9301 MEMB     71       POPC     H11B     HAL2     0.900000E-01   1.00800           0
      9302 MEMB     71       POPC     P        PL        1.50000       30.9740           0
      9303 MEMB     71       POPC     O13      O2L     -0.780000       15.9994           0
      9304 MEMB     71       POPC     O14      O2L     -0.780000       15.9994           0
      9305 MEMB     71       POPC     O12      OSLP    -0.570000       15.9994           0
      9306 MEMB     71       POPC     O11      OSLP    -0.570000       15.9994           0
      9307 MEMB     71       POPC     C1       CTL2    -0.800000E-01   12.0110           0
      9308 MEMB     71       POPC     HA       HAL2     0.900000E-01   1.00800           0
      9309 MEMB     71       POPC     HB       HAL2     0.900000E-01   1.00800           0
      9310 MEMB     71       POPC     C2       CTL1     0.170000       12.0110           0
      9311 MEMB     71       POPC     HS       HAL1     0.900000E-01   1.00800           0
      9312 MEMB     71       POPC     O21      OSL     -0.490000       15.9994           0
      9313 MEMB     71       POPC     C21      CL       0.900000       12.0110           0
      9314 MEMB     71       POPC     O22      OBL     -0.630000       15.9994           0
      9315 MEMB     71       POPC     C22      CTL2    -0.220000       12.0110           0
      9316 MEMB     71       POPC     H2R      HAL2     0.900000E-01   1.00800           0
      9317 MEMB     71       POPC     H2S      HAL2     0.900000E-01   1.00800           0
      9318 MEMB     71       POPC     C3       CTL2     0.800000E-01   12.0110           0
      9319 MEMB     71       POPC     HX       HAL2     0.900000E-01   1.00800           0
      9320 MEMB     71       POPC     HY       HAL2     0.900000E-01   1.00800           0
      9321 MEMB     71       POPC     O31      OSL     -0.490000       15.9994           0
      9322 MEMB     71       POPC     C31      CL       0.900000       12.0110           0
      9323 MEMB     71       POPC     O32      OBL     -0.630000       15.9994           0
      9324 MEMB     71       POPC     C32      CTL2    -0.220000       12.0110           0
      9325 MEMB     71       POPC     H2X      HAL2     0.900000E-01   1.00800           0
      9326 MEMB     71       POPC     H2Y      HAL2     0.900000E-01   1.00800           0
      9327 MEMB     71       POPC     C23      CTL2    -0.180000       12.0110           0
      9328 MEMB     71       POPC     H3R      HAL2     0.900000E-01   1.00800           0
      9329 MEMB     71       POPC     H3S      HAL2     0.900000E-01   1.00800           0
      9330 MEMB     71       POPC     C24      CTL2    -0.180000       12.0110           0
      9331 MEMB     71       POPC     H4R      HAL2     0.900000E-01   1.00800           0
      9332 MEMB     71       POPC     H4S      HAL2     0.900000E-01   1.00800           0
      9333 MEMB     71       POPC     C25      CTL2    -0.180000       12.0110           0
      9334 MEMB     71       POPC     H5R      HAL2     0.900000E-01   1.00800           0
      9335 MEMB     71       POPC     H5S      HAL2     0.900000E-01   1.00800           0
      9336 MEMB     71       POPC     C26      CTL2    -0.180000       12.0110           0
      9337 MEMB     71       POPC     H6R      HAL2     0.900000E-01   1.00800           0
      9338 MEMB     71       POPC     H6S      HAL2     0.900000E-01   1.00800           0
      9339 MEMB     71       POPC     C27      CTL2    -0.180000       12.0110           0
      9340 MEMB     71       POPC     H7R      HAL2     0.900000E-01   1.00800           0
      9341 MEMB     71       POPC     H7S      HAL2     0.900000E-01   1.00800           0
      9342 MEMB     71       POPC     C28      CTL2    -0.180000       12.0110           0
      9343 MEMB     71       POPC     H8R      HAL2     0.900000E-01   1.00800           0
      9344 MEMB     71       POPC     H8S      HAL2     0.900000E-01   1.00800           0
      9345 MEMB     71       POPC     C29      CEL1    -0.150000       12.0110           0
      9346 MEMB     71       POPC     H91      HEL1     0.150000       1.00800           0
      9347 MEMB     71       POPC     C210     CEL1    -0.150000       12.0110           0
      9348 MEMB     71       POPC     H101     HEL1     0.150000       1.00800           0
      9349 MEMB     71       POPC     C211     CTL2    -0.180000       12.0110           0
      9350 MEMB     71       POPC     H11R     HAL2     0.900000E-01   1.00800           0
      9351 MEMB     71       POPC     H11S     HAL2     0.900000E-01   1.00800           0
      9352 MEMB     71       POPC     C212     CTL2    -0.180000       12.0110           0
      9353 MEMB     71       POPC     H12R     HAL2     0.900000E-01   1.00800           0
      9354 MEMB     71       POPC     H12S     HAL2     0.900000E-01   1.00800           0
      9355 MEMB     71       POPC     C213     CTL2    -0.180000       12.0110           0
      9356 MEMB     71       POPC     H13R     HAL2     0.900000E-01   1.00800           0
      9357 MEMB     71       POPC     H13S     HAL2     0.900000E-01   1.00800           0
      9358 MEMB     71       POPC     C214     CTL2    -0.180000       12.0110           0
      9359 MEMB     71       POPC     H14R     HAL2     0.900000E-01   1.00800           0
      9360 MEMB     71       POPC     H14S     HAL2     0.900000E-01   1.00800           0
      9361 MEMB     71       POPC     C215     CTL2    -0.180000       12.0110           0
      9362 MEMB     71       POPC     H15R     HAL2     0.900000E-01   1.00800           0
      9363 MEMB     71       POPC     H15S     HAL2     0.900000E-01   1.00800           0
      9364 MEMB     71       POPC     C216     CTL2    -0.180000       12.0110           0
      9365 MEMB     71       POPC     H16R     HAL2     0.900000E-01   1.00800           0
      9366 MEMB     71       POPC     H16S     HAL2     0.900000E-01   1.00800           0
      9367 MEMB     71       POPC     C217     CTL2    -0.180000       12.0110           0
      9368 MEMB     71       POPC     H17R     HAL2     0.900000E-01   1.00800           0
      9369 MEMB     71       POPC     H17S     HAL2     0.900000E-01   1.00800           0
      9370 MEMB     71       POPC     C218     CTL3    -0.270000       12.0110           0
      9371 MEMB     71       POPC     H18R     HAL3     0.900000E-01   1.00800           0
      9372 MEMB     71       POPC     H18S     HAL3     0.900000E-01   1.00800           0
      9373 MEMB     71       POPC     H18T     HAL3     0.900000E-01   1.00800           0
      9374 MEMB     71       POPC     C33      CTL2    -0.180000       12.0110           0
      9375 MEMB     71       POPC     H3X      HAL2     0.900000E-01   1.00800           0
      9376 MEMB     71       POPC     H3Y      HAL2     0.900000E-01   1.00800           0
      9377 MEMB     71       POPC     C34      CTL2    -0.180000       12.0110           0
      9378 MEMB     71       POPC     H4X      HAL2     0.900000E-01   1.00800           0
      9379 MEMB     71       POPC     H4Y      HAL2     0.900000E-01   1.00800           0
      9380 MEMB     71       POPC     C35      CTL2    -0.180000       12.0110           0
      9381 MEMB     71       POPC     H5X      HAL2     0.900000E-01   1.00800           0
      9382 MEMB     71       POPC     H5Y      HAL2     0.900000E-01   1.00800           0
      9383 MEMB     71       POPC     C36      CTL2    -0.180000       12.0110           0
      9384 MEMB     71       POPC     H6X      HAL2     0.900000E-01   1.00800           0
      9385 MEMB     71       POPC     H6Y      HAL2     0.900000E-01   1.00800           0
      9386 MEMB     71       POPC     C37      CTL2    -0.180000       12.0110           0
      9387 MEMB     71       POPC     H7X      HAL2     0.900000E-01   1.00800           0
      9388 MEMB     71       POPC     H7Y      HAL2     0.900000E-01   1.00800           0
      9389 MEMB     71       POPC     C38      CTL2    -0.180000       12.0110           0
      9390 MEMB     71       POPC     H8X      HAL2     0.900000E-01   1.00800           0
      9391 MEMB     71       POPC     H8Y      HAL2     0.900000E-01   1.00800           0
      9392 MEMB     71       POPC     C39      CTL2    -0.180000       12.0110           0
      9393 MEMB     71       POPC     H9X      HAL2     0.900000E-01   1.00800           0
      9394 MEMB     71       POPC     H9Y      HAL2     0.900000E-01   1.00800           0
      9395 MEMB     71       POPC     C310     CTL2    -0.180000       12.0110           0
      9396 MEMB     71       POPC     H10X     HAL2     0.900000E-01   1.00800           0
      9397 MEMB     71       POPC     H10Y     HAL2     0.900000E-01   1.00800           0
      9398 MEMB     71       POPC     C311     CTL2    -0.180000       12.0110           0
      9399 MEMB     71       POPC     H11X     HAL2     0.900000E-01   1.00800           0
      9400 MEMB     71       POPC     H11Y     HAL2     0.900000E-01   1.00800           0
      9401 MEMB     71       POPC     C312     CTL2    -0.180000       12.0110           0
      9402 MEMB     71       POPC     H12X     HAL2     0.900000E-01   1.00800           0
      9403 MEMB     71       POPC     H12Y     HAL2     0.900000E-01   1.00800           0
      9404 MEMB     71       POPC     C313     CTL2    -0.180000       12.0110           0
      9405 MEMB     71       POPC     H13X     HAL2     0.900000E-01   1.00800           0
      9406 MEMB     71       POPC     H13Y     HAL2     0.900000E-01   1.00800           0
      9407 MEMB     71       POPC     C314     CTL2    -0.180000       12.0110           0
      9408 MEMB     71       POPC     H14X     HAL2     0.900000E-01   1.00800           0
      9409 MEMB     71       POPC     H14Y     HAL2     0.900000E-01   1.00800           0
      9410 MEMB     71       POPC     C315     CTL2    -0.180000       12.0110           0
      9411 MEMB     71       POPC     H15X     HAL2     0.900000E-01   1.00800           0
      9412 MEMB     71       POPC     H15Y     HAL2     0.900000E-01   1.00800           0
      9413 MEMB     71       POPC     C316     CTL3    -0.270000       12.0110           0
      9414 MEMB     71       POPC     H16X     HAL3     0.900000E-01   1.00800           0
      9415 MEMB     71       POPC     H16Y     HAL3     0.900000E-01   1.00800           0
      9416 MEMB     71       POPC     H16Z     HAL3     0.900000E-01   1.00800           0
      9417 MEMB     72       POPS     N        NH3L    -0.300000       14.0070           0
      9418 MEMB     72       POPS     HN1      HCL      0.330000       1.00800           0
      9419 MEMB     72       POPS     HN2      HCL      0.330000       1.00800           0
      9420 MEMB     72       POPS     HN3      HCL      0.330000       1.00800           0
      9421 MEMB     72       POPS     C12      CTL1     0.210000       12.0110           0
      9422 MEMB     72       POPS     H12A     HBL      0.100000       1.00800           0
      9423 MEMB     72       POPS     C13      CCL      0.340000       12.0110           0
      9424 MEMB     72       POPS     O13A     OCL     -0.670000       15.9994           0
      9425 MEMB     72       POPS     O13B     OCL     -0.670000       15.9994           0
      9426 MEMB     72       POPS     C11      CTL2    -0.800000E-01   12.0110           0
      9427 MEMB     72       POPS     H11A     HAL2     0.900000E-01   1.00800           0
      9428 MEMB     72       POPS     H11B     HAL2     0.900000E-01   1.00800           0
      9429 MEMB     72       POPS     P        PL        1.50000       30.9740           0
      9430 MEMB     72       POPS     O13      O2L     -0.780000       15.9994           0
      9431 MEMB     72       POPS     O14      O2L     -0.780000       15.9994           0
      9432 MEMB     72       POPS     O12      OSLP    -0.570000       15.9994           0
      9433 MEMB     72       POPS     O11      OSLP    -0.570000       15.9994           0
      9434 MEMB     72       POPS     C1       CTL2    -0.800000E-01   12.0110           0
      9435 MEMB     72       POPS     HA       HAL2     0.900000E-01   1.00800           0
      9436 MEMB     72       POPS     HB       HAL2     0.900000E-01   1.00800           0
      9437 MEMB     72       POPS     C2       CTL1     0.170000       12.0110           0
      9438 MEMB     72       POPS     HS       HAL1     0.900000E-01   1.00800           0
      9439 MEMB     72       POPS     O21      OSL     -0.490000       15.9994           0
      9440 MEMB     72       POPS     C21      CL       0.900000       12.0110           0
      9441 MEMB     72       POPS     O22      OBL     -0.630000       15.9994           0
      9442 MEMB     72       POPS     C22      CTL2    -0.220000       12.0110           0
      9443 MEMB     72       POPS     H2R      HAL2     0.900000E-01   1.00800           0
      9444 MEMB     72       POPS     H2S      HAL2     0.900000E-01   1.00800           0
      9445 MEMB     72       POPS     C3       CTL2     0.800000E-01   12.0110           0
      9446 MEMB     72       POPS     HX       HAL2     0.900000E-01   1.00800           0
      9447 MEMB     72       POPS     HY       HAL2     0.900000E-01   1.00800           0
      9448 MEMB     72       POPS     O31      OSL     -0.490000       15.9994           0
      9449 MEMB     72       POPS     C31      CL       0.900000       12.0110           0
      9450 MEMB     72       POPS     O32      OBL     -0.630000       15.9994           0
      9451 MEMB     72       POPS     C32      CTL2    -0.220000       12.0110           0
      9452 MEMB     72       POPS     H2X      HAL2     0.900000E-01   1.00800           0
      9453 MEMB     72       POPS     H2Y      HAL2     0.900000E-01   1.00800           0
      9454 MEMB     72       POPS     C23      CTL2    -0.180000       12.0110           0
      9455 MEMB     72       POPS     H3R      HAL2     0.900000E-01   1.00800           0
      9456 MEMB     72       POPS     H3S      HAL2     0.900000E-01   1.00800           0
      9457 MEMB     72       POPS     C24      CTL2    -0.180000       12.0110           0
      9458 MEMB     72       POPS     H4R      HAL2     0.900000E-01   1.00800           0
      9459 MEMB     72       POPS     H4S      HAL2     0.900000E-01   1.00800           0
      9460 MEMB     72       POPS     C25      CTL2    -0.180000       12.0110           0
      9461 MEMB     72       POPS     H5R      HAL2     0.900000E-01   1.00800           0
      9462 MEMB     72       POPS     H5S      HAL2     0.900000E-01   1.00800           0
      9463 MEMB     72       POPS     C26      CTL2    -0.180000       12.0110           0
      9464 MEMB     72       POPS     H6R      HAL2     0.900000E-01   1.00800           0
      9465 MEMB     72       POPS     H6S      HAL2     0.900000E-01   1.00800           0
      9466 MEMB     72       POPS     C27      CTL2    -0.180000       12.0110           0
      9467 MEMB     72       POPS     H7R      HAL2     0.900000E-01   1.00800           0
      9468 MEMB     72       POPS     H7S      HAL2     0.900000E-01   1.00800           0
      9469 MEMB     72       POPS     C28      CTL2    -0.180000       12.0110           0
      9470 MEMB     72       POPS     H8R      HAL2     0.900000E-01   1.00800           0
      9471 MEMB     72       POPS     H8S      HAL2     0.900000E-01   1.00800           0
      9472 MEMB     72       POPS     C29      CEL1    -0.150000       12.0110           0
      9473 MEMB     72       POPS     H91      HEL1     0.150000       1.00800           0
      9474 MEMB     72       POPS     C210     CEL1    -0.150000       12.0110           0
      9475 MEMB     72       POPS     H101     HEL1     0.150000       1.00800           0
      9476 MEMB     72       POPS     C211     CTL2    -0.180000       12.0110           0
      9477 MEMB     72       POPS     H11R     HAL2     0.900000E-01   1.00800           0
      9478 MEMB     72       POPS     H11S     HAL2     0.900000E-01   1.00800           0
      9479 MEMB     72       POPS     C212     CTL2    -0.180000       12.0110           0
      9480 MEMB     72       POPS     H12R     HAL2     0.900000E-01   1.00800           0
      9481 MEMB     72       POPS     H12S     HAL2     0.900000E-01   1.00800           0
      9482 MEMB     72       POPS     C213     CTL2    -0.180000       12.0110           0
      9483 MEMB     72       POPS     H13R     HAL2     0.900000E-01   1.00800           0
      9484 MEMB     72       POPS     H13S     HAL2     0.900000E-01   1.00800           0
      9485 MEMB     72       POPS     C214     CTL2    -0.180000       12.0110           0
      9486 MEMB     72       POPS     H14R     HAL2     0.900000E-01   1.00800           0
      9487 MEMB     72       POPS     H14S     HAL2     0.900000E-01   1.00800           0
      9488 MEMB     72       POPS     C215     CTL2    -0.180000       12.0110           0
      9489 MEMB     72       POPS     H15R     HAL2     0.900000E-01   1.00800           0
      9490 MEMB     72       POPS     H15S     HAL2     0.900000E-01   1.00800           0
      9491 MEMB     72       POPS     C216     CTL2    -0.180000       12.0110           0
      9492 MEMB     72       POPS     H16R     HAL2     0.900000E-01   1.00800           0
      9493 MEMB     72       POPS     H16S     HAL2     0.900000E-01   1.00800           0
      9494 MEMB     72       POPS     C217     CTL2    -0.180000       12.0110           0
      9495 MEMB     72       POPS     H17R     HAL2     0.900000E-01   1.00800           0
      9496 MEMB     72       POPS     H17S     HAL2     0.900000E-01   1.00800           0
      9497 MEMB     72       POPS     C218     CTL3    -0.270000       12.0110           0
      9498 MEMB     72       POPS     H18R     HAL3     0.900000E-01   1.00800           0
      9499 MEMB     72       POPS     H18S     HAL3     0.900000E-01   1.00800           0
      9500 MEMB     72       POPS     H18T     HAL3     0.900000E-01   1.00800           0
      9501 MEMB     72       POPS     C33      CTL2    -0.180000       12.0110           0
      9502 MEMB     72       POPS     H3X      HAL2     0.900000E-01   1.00800           0
      9503 MEMB     72       POPS     H3Y      HAL2     0.900000E-01   1.00800           0
      9504 MEMB     72       POPS     C34      CTL2    -0.180000       12.0110           0
      9505 MEMB     72       POPS     H4X      HAL2     0.900000E-01   1.00800           0
      9506 MEMB     72       POPS     H4Y      HAL2     0.900000E-01   1.00800           0
      9507 MEMB     72       POPS     C35      CTL2    -0.180000       12.0110           0
      9508 MEMB     72       POPS     H5X      HAL2     0.900000E-01   1.00800           0
      9509 MEMB     72       POPS     H5Y      HAL2     0.900000E-01   1.00800           0
      9510 MEMB     72       POPS     C36      CTL2    -0.180000       12.0110           0
      9511 MEMB     72       POPS     H6X      HAL2     0.900000E-01   1.00800           0
      9512 MEMB     72       POPS     H6Y      HAL2     0.900000E-01   1.00800           0
      9513 MEMB     72       POPS     C37      CTL2    -0.180000       12.0110           0
      9514 MEMB     72       POPS     H7X      HAL2     0.900000E-01   1.00800           0
      9515 MEMB     72       POPS     H7Y      HAL2     0.900000E-01   1.00800           0
      9516 MEMB     72       POPS     C38      CTL2    -0.180000       12.0110           0
      9517 MEMB     72       POPS     H8X      HAL2     0.900000E-01   1.00800           0
      9518 MEMB     72       POPS     H8Y      HAL2     0.900000E-01   1.00800           0
      9519 MEMB     72       POPS     C39      CTL2    -0.180000       12.0110           0
      9520 MEMB     72       POPS     H9X      HAL2     0.900000E-01   1.00800           0
      9521 MEMB     72       POPS     H9Y      HAL2     0.900000E-01   1.00800           0
      9522 MEMB     72       POPS     C310     CTL2    -0.180000       12.0110           0
      9523 MEMB     72       POPS     H10X     HAL2     0.900000E-01   1.00800           0
      9524 MEMB     72       POPS     H10Y     HAL2     0.900000E-01   1.00800           0
      9525 MEMB     72       POPS     C311     CTL2    -0.180000       12.0110           0
      9526 MEMB     72       POPS     H11X     HAL2     0.900000E-01   1.00800           0
      9527 MEMB     72       POPS     H11Y     HAL2     0.900000E-01   1.00800           0
      9528 MEMB     72       POPS     C312     CTL2    -0.180000       12.0110           0
      9529 MEMB     72       POPS     H12X     HAL2     0.900000E-01   1.00800           0
      9530 MEMB     72       POPS     H12Y     HAL2     0.900000E-01   1.00800           0
      9531 MEMB     72       POPS     C313     CTL2    -0.180000       12.0110           0
      9532 MEMB     72       POPS     H13X     HAL2     0.900000E-01   1.00800           0
      9533 MEMB     72       POPS     H13Y     HAL2     0.900000E-01   1.00800           0
      9534 MEMB     72       POPS     C314     CTL2    -0.180000       12.0110           0
      9535 MEMB     72       POPS     H14X     HAL2     0.900000E-01   1.00800           0
      9536 MEMB     72       POPS     H14Y     HAL2     0.900000E-01   1.00800           0
      9537 MEMB     72       POPS     C315     CTL2    -0.180000       12.0110           0
      9538 MEMB     72       POPS     H15X     HAL2     0.900000E-01   1.00800           0
      9539 MEMB     72       POPS     H15Y     HAL2     0.900000E-01   1.00800           0
      9540 MEMB     72       POPS     C316     CTL3    -0.270000       12.0110           0
      9541 MEMB     72       POPS     H16X     HAL3     0.900000E-01   1.00800           0
      9542 MEMB     72       POPS     H16Y     HAL3     0.900000E-01   1.00800           0
      9543 MEMB     72       POPS     H16Z     HAL3     0.900000E-01   1.00800           0
      9544 MEMB     73       POPC     N        NTL     -0.600000       14.0070           0
      9545 MEMB     73       POPC     C12      CTL2    -0.100000       12.0110           0
      9546 MEMB     73       POPC     H12A     HL       0.250000       1.00800           0
      9547 MEMB     73       POPC     H12B     HL       0.250000       1.00800           0
      9548 MEMB     73       POPC     C13      CTL5    -0.350000       12.0110           0
      9549 MEMB     73       POPC     H13A     HL       0.250000       1.00800           0
      9550 MEMB     73       POPC     H13B     HL       0.250000       1.00800           0
      9551 MEMB     73       POPC     H13C     HL       0.250000       1.00800           0
      9552 MEMB     73       POPC     C14      CTL5    -0.350000       12.0110           0
      9553 MEMB     73       POPC     H14A     HL       0.250000       1.00800           0
      9554 MEMB     73       POPC     H14B     HL       0.250000       1.00800           0
      9555 MEMB     73       POPC     H14C     HL       0.250000       1.00800           0
      9556 MEMB     73       POPC     C15      CTL5    -0.350000       12.0110           0
      9557 MEMB     73       POPC     H15A     HL       0.250000       1.00800           0
      9558 MEMB     73       POPC     H15B     HL       0.250000       1.00800           0
      9559 MEMB     73       POPC     H15C     HL       0.250000       1.00800           0
      9560 MEMB     73       POPC     C11      CTL2    -0.800000E-01   12.0110           0
      9561 MEMB     73       POPC     H11A     HAL2     0.900000E-01   1.00800           0
      9562 MEMB     73       POPC     H11B     HAL2     0.900000E-01   1.00800           0
      9563 MEMB     73       POPC     P        PL        1.50000       30.9740           0
      9564 MEMB     73       POPC     O13      O2L     -0.780000       15.9994           0
      9565 MEMB     73       POPC     O14      O2L     -0.780000       15.9994           0
      9566 MEMB     73       POPC     O12      OSLP    -0.570000       15.9994           0
      9567 MEMB     73       POPC     O11      OSLP    -0.570000       15.9994           0
      9568 MEMB     73       POPC     C1       CTL2    -0.800000E-01   12.0110           0
      9569 MEMB     73       POPC     HA       HAL2     0.900000E-01   1.00800           0
      9570 MEMB     73       POPC     HB       HAL2     0.900000E-01   1.00800           0
      9571 MEMB     73       POPC     C2       CTL1     0.170000       12.0110           0
      9572 MEMB     73       POPC     HS       HAL1     0.900000E-01   1.00800           0
      9573 MEMB     73       POPC     O21      OSL     -0.490000       15.9994           0
      9574 MEMB     73       POPC     C21      CL       0.900000       12.0110           0
      9575 MEMB     73       POPC     O22      OBL     -0.630000       15.9994           0
      9576 MEMB     73       POPC     C22      CTL2    -0.220000       12.0110           0
      9577 MEMB     73       POPC     H2R      HAL2     0.900000E-01   1.00800           0
      9578 MEMB     73       POPC     H2S      HAL2     0.900000E-01   1.00800           0
      9579 MEMB     73       POPC     C3       CTL2     0.800000E-01   12.0110           0
      9580 MEMB     73       POPC     HX       HAL2     0.900000E-01   1.00800           0
      9581 MEMB     73       POPC     HY       HAL2     0.900000E-01   1.00800           0
      9582 MEMB     73       POPC     O31      OSL     -0.490000       15.9994           0
      9583 MEMB     73       POPC     C31      CL       0.900000       12.0110           0
      9584 MEMB     73       POPC     O32      OBL     -0.630000       15.9994           0
      9585 MEMB     73       POPC     C32      CTL2    -0.220000       12.0110           0
      9586 MEMB     73       POPC     H2X      HAL2     0.900000E-01   1.00800           0
      9587 MEMB     73       POPC     H2Y      HAL2     0.900000E-01   1.00800           0
      9588 MEMB     73       POPC     C23      CTL2    -0.180000       12.0110           0
      9589 MEMB     73       POPC     H3R      HAL2     0.900000E-01   1.00800           0
      9590 MEMB     73       POPC     H3S      HAL2     0.900000E-01   1.00800           0
      9591 MEMB     73       POPC     C24      CTL2    -0.180000       12.0110           0
      9592 MEMB     73       POPC     H4R      HAL2     0.900000E-01   1.00800           0
      9593 MEMB     73       POPC     H4S      HAL2     0.900000E-01   1.00800           0
      9594 MEMB     73       POPC     C25      CTL2    -0.180000       12.0110           0
      9595 MEMB     73       POPC     H5R      HAL2     0.900000E-01   1.00800           0
      9596 MEMB     73       POPC     H5S      HAL2     0.900000E-01   1.00800           0
      9597 MEMB     73       POPC     C26      CTL2    -0.180000       12.0110           0
      9598 MEMB     73       POPC     H6R      HAL2     0.900000E-01   1.00800           0
      9599 MEMB     73       POPC     H6S      HAL2     0.900000E-01   1.00800           0
      9600 MEMB     73       POPC     C27      CTL2    -0.180000       12.0110           0
      9601 MEMB     73       POPC     H7R      HAL2     0.900000E-01   1.00800           0
      9602 MEMB     73       POPC     H7S      HAL2     0.900000E-01   1.00800           0
      9603 MEMB     73       POPC     C28      CTL2    -0.180000       12.0110           0
      9604 MEMB     73       POPC     H8R      HAL2     0.900000E-01   1.00800           0
      9605 MEMB     73       POPC     H8S      HAL2     0.900000E-01   1.00800           0
      9606 MEMB     73       POPC     C29      CEL1    -0.150000       12.0110           0
      9607 MEMB     73       POPC     H91      HEL1     0.150000       1.00800           0
      9608 MEMB     73       POPC     C210     CEL1    -0.150000       12.0110           0
      9609 MEMB     73       POPC     H101     HEL1     0.150000       1.00800           0
      9610 MEMB     73       POPC     C211     CTL2    -0.180000       12.0110           0
      9611 MEMB     73       POPC     H11R     HAL2     0.900000E-01   1.00800           0
      9612 MEMB     73       POPC     H11S     HAL2     0.900000E-01   1.00800           0
      9613 MEMB     73       POPC     C212     CTL2    -0.180000       12.0110           0
      9614 MEMB     73       POPC     H12R     HAL2     0.900000E-01   1.00800           0
      9615 MEMB     73       POPC     H12S     HAL2     0.900000E-01   1.00800           0
      9616 MEMB     73       POPC     C213     CTL2    -0.180000       12.0110           0
      9617 MEMB     73       POPC     H13R     HAL2     0.900000E-01   1.00800           0
      9618 MEMB     73       POPC     H13S     HAL2     0.900000E-01   1.00800           0
      9619 MEMB     73       POPC     C214     CTL2    -0.180000       12.0110           0
      9620 MEMB     73       POPC     H14R     HAL2     0.900000E-01   1.00800           0
      9621 MEMB     73       POPC     H14S     HAL2     0.900000E-01   1.00800           0
      9622 MEMB     73       POPC     C215     CTL2    -0.180000       12.0110           0
      9623 MEMB     73       POPC     H15R     HAL2     0.900000E-01   1.00800           0
      9624 MEMB     73       POPC     H15S     HAL2     0.900000E-01   1.00800           0
      9625 MEMB     73       POPC     C216     CTL2    -0.180000       12.0110           0
      9626 MEMB     73       POPC     H16R     HAL2     0.900000E-01   1.00800           0
      9627 MEMB     73       POPC     H16S     HAL2     0.900000E-01   1.00800           0
      9628 MEMB     73       POPC     C217     CTL2    -0.180000       12.0110           0
      9629 MEMB     73       POPC     H17R     HAL2     0.900000E-01   1.00800           0
      9630 MEMB     73       POPC     H17S     HAL2     0.900000E-01   1.00800           0
      9631 MEMB     73       POPC     C218     CTL3    -0.270000       12.0110           0
      9632 MEMB     73       POPC     H18R     HAL3     0.900000E-01   1.00800           0
      9633 MEMB     73       POPC     H18S     HAL3     0.900000E-01   1.00800           0
      9634 MEMB     73       POPC     H18T     HAL3     0.900000E-01   1.00800           0
      9635 MEMB     73       POPC     C33      CTL2    -0.180000       12.0110           0
      9636 MEMB     73       POPC     H3X      HAL2     0.900000E-01   1.00800           0
      9637 MEMB     73       POPC     H3Y      HAL2     0.900000E-01   1.00800           0
      9638 MEMB     73       POPC     C34      CTL2    -0.180000       12.0110           0
      9639 MEMB     73       POPC     H4X      HAL2     0.900000E-01   1.00800           0
      9640 MEMB     73       POPC     H4Y      HAL2     0.900000E-01   1.00800           0
      9641 MEMB     73       POPC     C35      CTL2    -0.180000       12.0110           0
      9642 MEMB     73       POPC     H5X      HAL2     0.900000E-01   1.00800           0
      9643 MEMB     73       POPC     H5Y      HAL2     0.900000E-01   1.00800           0
      9644 MEMB     73       POPC     C36      CTL2    -0.180000       12.0110           0
      9645 MEMB     73       POPC     H6X      HAL2     0.900000E-01   1.00800           0
      9646 MEMB     73       POPC     H6Y      HAL2     0.900000E-01   1.00800           0
      9647 MEMB     73       POPC     C37      CTL2    -0.180000       12.0110           0
      9648 MEMB     73       POPC     H7X      HAL2     0.900000E-01   1.00800           0
      9649 MEMB     73       POPC     H7Y      HAL2     0.900000E-01   1.00800           0
      9650 MEMB     73       POPC     C38      CTL2    -0.180000       12.0110           0
      9651 MEMB     73       POPC     H8X      HAL2     0.900000E-01   1.00800           0
      9652 MEMB     73       POPC     H8Y      HAL2     0.900000E-01   1.00800           0
      9653 MEMB     73       POPC     C39      CTL2    -0.180000       12.0110           0
      9654 MEMB     73       POPC     H9X      HAL2     0.900000E-01   1.00800           0
      9655 MEMB     73       POPC     H9Y      HAL2     0.900000E-01   1.00800           0
      9656 MEMB     73       POPC     C310     CTL2    -0.180000       12.0110           0
      9657 MEMB     73       POPC     H10X     HAL2     0.900000E-01   1.00800           0
      9658 MEMB     73       POPC     H10Y     HAL2     0.900000E-01   1.00800           0
      9659 MEMB     73       POPC     C311     CTL2    -0.180000       12.0110           0
      9660 MEMB     73       POPC     H11X     HAL2     0.900000E-01   1.00800           0
      9661 MEMB     73       POPC     H11Y     HAL2     0.900000E-01   1.00800           0
      9662 MEMB     73       POPC     C312     CTL2    -0.180000       12.0110           0
      9663 MEMB     73       POPC     H12X     HAL2     0.900000E-01   1.00800           0
      9664 MEMB     73       POPC     H12Y     HAL2     0.900000E-01   1.00800           0
      9665 MEMB     73       POPC     C313     CTL2    -0.180000       12.0110           0
      9666 MEMB     73       POPC     H13X     HAL2     0.900000E-01   1.00800           0
      9667 MEMB     73       POPC     H13Y     HAL2     0.900000E-01   1.00800           0
      9668 MEMB     73       POPC     C314     CTL2    -0.180000       12.0110           0
      9669 MEMB     73       POPC     H14X     HAL2     0.900000E-01   1.00800           0
      9670 MEMB     73       POPC     H14Y     HAL2     0.900000E-01   1.00800           0
      9671 MEMB     73       POPC     C315     CTL2    -0.180000       12.0110           0
      9672 MEMB     73       POPC     H15X     HAL2     0.900000E-01   1.00800           0
      9673 MEMB     73       POPC     H15Y     HAL2     0.900000E-01   1.00800           0
      9674 MEMB     73       POPC     C316     CTL3    -0.270000       12.0110           0
      9675 MEMB     73       POPC     H16X     HAL3     0.900000E-01   1.00800           0
      9676 MEMB     73       POPC     H16Y     HAL3     0.900000E-01   1.00800           0
      9677 MEMB     73       POPC     H16Z     HAL3     0.900000E-01   1.00800           0
      9678 MEMB     74       POPS     N        NH3L    -0.300000       14.0070           0
      9679 MEMB     74       POPS     HN1      HCL      0.330000       1.00800           0
      9680 MEMB     74       POPS     HN2      HCL      0.330000       1.00800           0
      9681 MEMB     74       POPS     HN3      HCL      0.330000       1.00800           0
      9682 MEMB     74       POPS     C12      CTL1     0.210000       12.0110           0
      9683 MEMB     74       POPS     H12A     HBL      0.100000       1.00800           0
      9684 MEMB     74       POPS     C13      CCL      0.340000       12.0110           0
      9685 MEMB     74       POPS     O13A     OCL     -0.670000       15.9994           0
      9686 MEMB     74       POPS     O13B     OCL     -0.670000       15.9994           0
      9687 MEMB     74       POPS     C11      CTL2    -0.800000E-01   12.0110           0
      9688 MEMB     74       POPS     H11A     HAL2     0.900000E-01   1.00800           0
      9689 MEMB     74       POPS     H11B     HAL2     0.900000E-01   1.00800           0
      9690 MEMB     74       POPS     P        PL        1.50000       30.9740           0
      9691 MEMB     74       POPS     O13      O2L     -0.780000       15.9994           0
      9692 MEMB     74       POPS     O14      O2L     -0.780000       15.9994           0
      9693 MEMB     74       POPS     O12      OSLP    -0.570000       15.9994           0
      9694 MEMB     74       POPS     O11      OSLP    -0.570000       15.9994           0
      9695 MEMB     74       POPS     C1       CTL2    -0.800000E-01   12.0110           0
      9696 MEMB     74       POPS     HA       HAL2     0.900000E-01   1.00800           0
      9697 MEMB     74       POPS     HB       HAL2     0.900000E-01   1.00800           0
      9698 MEMB     74       POPS     C2       CTL1     0.170000       12.0110           0
      9699 MEMB     74       POPS     HS       HAL1     0.900000E-01   1.00800           0
      9700 MEMB     74       POPS     O21      OSL     -0.490000       15.9994           0
      9701 MEMB     74       POPS     C21      CL       0.900000       12.0110           0
      9702 MEMB     74       POPS     O22      OBL     -0.630000       15.9994           0
      9703 MEMB     74       POPS     C22      CTL2    -0.220000       12.0110           0
      9704 MEMB     74       POPS     H2R      HAL2     0.900000E-01   1.00800           0
      9705 MEMB     74       POPS     H2S      HAL2     0.900000E-01   1.00800           0
      9706 MEMB     74       POPS     C3       CTL2     0.800000E-01   12.0110           0
      9707 MEMB     74       POPS     HX       HAL2     0.900000E-01   1.00800           0
      9708 MEMB     74       POPS     HY       HAL2     0.900000E-01   1.00800           0
      9709 MEMB     74       POPS     O31      OSL     -0.490000       15.9994           0
      9710 MEMB     74       POPS     C31      CL       0.900000       12.0110           0
      9711 MEMB     74       POPS     O32      OBL     -0.630000       15.9994           0
      9712 MEMB     74       POPS     C32      CTL2    -0.220000       12.0110           0
      9713 MEMB     74       POPS     H2X      HAL2     0.900000E-01   1.00800           0
      9714 MEMB     74       POPS     H2Y      HAL2     0.900000E-01   1.00800           0
      9715 MEMB     74       POPS     C23      CTL2    -0.180000       12.0110           0
      9716 MEMB     74       POPS     H3R      HAL2     0.900000E-01   1.00800           0
      9717 MEMB     74       POPS     H3S      HAL2     0.900000E-01   1.00800           0
      9718 MEMB     74       POPS     C24      CTL2    -0.180000       12.0110           0
      9719 MEMB     74       POPS     H4R      HAL2     0.900000E-01   1.00800           0
      9720 MEMB     74       POPS     H4S      HAL2     0.900000E-01   1.00800           0
      9721 MEMB     74       POPS     C25      CTL2    -0.180000       12.0110           0
      9722 MEMB     74       POPS     H5R      HAL2     0.900000E-01   1.00800           0
      9723 MEMB     74       POPS     H5S      HAL2     0.900000E-01   1.00800           0
      9724 MEMB     74       POPS     C26      CTL2    -0.180000       12.0110           0
      9725 MEMB     74       POPS     H6R      HAL2     0.900000E-01   1.00800           0
      9726 MEMB     74       POPS     H6S      HAL2     0.900000E-01   1.00800           0
      9727 MEMB     74       POPS     C27      CTL2    -0.180000       12.0110           0
      9728 MEMB     74       POPS     H7R      HAL2     0.900000E-01   1.00800           0
      9729 MEMB     74       POPS     H7S      HAL2     0.900000E-01   1.00800           0
      9730 MEMB     74       POPS     C28      CTL2    -0.180000       12.0110           0
      9731 MEMB     74       POPS     H8R      HAL2     0.900000E-01   1.00800           0
      9732 MEMB     74       POPS     H8S      HAL2     0.900000E-01   1.00800           0
      9733 MEMB     74       POPS     C29      CEL1    -0.150000       12.0110           0
      9734 MEMB     74       POPS     H91      HEL1     0.150000       1.00800           0
      9735 MEMB     74       POPS     C210     CEL1    -0.150000       12.0110           0
      9736 MEMB     74       POPS     H101     HEL1     0.150000       1.00800           0
      9737 MEMB     74       POPS     C211     CTL2    -0.180000       12.0110           0
      9738 MEMB     74       POPS     H11R     HAL2     0.900000E-01   1.00800           0
      9739 MEMB     74       POPS     H11S     HAL2     0.900000E-01   1.00800           0
      9740 MEMB     74       POPS     C212     CTL2    -0.180000       12.0110           0
      9741 MEMB     74       POPS     H12R     HAL2     0.900000E-01   1.00800           0
      9742 MEMB     74       POPS     H12S     HAL2     0.900000E-01   1.00800           0
      9743 MEMB     74       POPS     C213     CTL2    -0.180000       12.0110           0
      9744 MEMB     74       POPS     H13R     HAL2     0.900000E-01   1.00800           0
      9745 MEMB     74       POPS     H13S     HAL2     0.900000E-01   1.00800           0
      9746 MEMB     74       POPS     C214     CTL2    -0.180000       12.0110           0
      9747 MEMB     74       POPS     H14R     HAL2     0.900000E-01   1.00800           0
      9748 MEMB     74       POPS     H14S     HAL2     0.900000E-01   1.00800           0
      9749 MEMB     74       POPS     C215     CTL2    -0.180000       12.0110           0
      9750 MEMB     74       POPS     H15R     HAL2     0.900000E-01   1.00800           0
      9751 MEMB     74       POPS     H15S     HAL2     0.900000E-01   1.00800           0
      9752 MEMB     74       POPS     C216     CTL2    -0.180000       12.0110           0
      9753 MEMB     74       POPS     H16R     HAL2     0.900000E-01   1.00800           0
      9754 MEMB     74       POPS     H16S     HAL2     0.900000E-01   1.00800           0
      9755 MEMB     74       POPS     C217     CTL2    -0.180000       12.0110           0
      9756 MEMB     74       POPS     H17R     HAL2     0.900000E-01   1.00800           0
      9757 MEMB     74       POPS     H17S     HAL2     0.900000E-01   1.00800           0
      9758 MEMB     74       POPS     C218     CTL3    -0.270000       12.0110           0
      9759 MEMB     74       POPS     H18R     HAL3     0.900000E-01   1.00800           0
      9760 MEMB     74       POPS     H18S     HAL3     0.900000E-01   1.00800           0
      9761 MEMB     74       POPS     H18T     HAL3     0.900000E-01   1.00800           0
      9762 MEMB     74       POPS     C33      CTL2    -0.180000       12.0110           0
      9763 MEMB     74       POPS     H3X      HAL2     0.900000E-01   1.00800           0
      9764 MEMB     74       POPS     H3Y      HAL2     0.900000E-01   1.00800           0
      9765 MEMB     74       POPS     C34      CTL2    -0.180000       12.0110           0
      9766 MEMB     74       POPS     H4X      HAL2     0.900000E-01   1.00800           0
      9767 MEMB     74       POPS     H4Y      HAL2     0.900000E-01   1.00800           0
      9768 MEMB     74       POPS     C35      CTL2    -0.180000       12.0110           0
      9769 MEMB     74       POPS     H5X      HAL2     0.900000E-01   1.00800           0
      9770 MEMB     74       POPS     H5Y      HAL2     0.900000E-01   1.00800           0
      9771 MEMB     74       POPS     C36      CTL2    -0.180000       12.0110           0
      9772 MEMB     74       POPS     H6X      HAL2     0.900000E-01   1.00800           0
      9773 MEMB     74       POPS     H6Y      HAL2     0.900000E-01   1.00800           0
      9774 MEMB     74       POPS     C37      CTL2    -0.180000       12.0110           0
      9775 MEMB     74       POPS     H7X      HAL2     0.900000E-01   1.00800           0
      9776 MEMB     74       POPS     H7Y      HAL2     0.900000E-01   1.00800           0
      9777 MEMB     74       POPS     C38      CTL2    -0.180000       12.0110           0
      9778 MEMB     74       POPS     H8X      HAL2     0.900000E-01   1.00800           0
      9779 MEMB     74       POPS     H8Y      HAL2     0.900000E-01   1.00800           0
      9780 MEMB     74       POPS     C39      CTL2    -0.180000       12.0110           0
      9781 MEMB     74       POPS     H9X      HAL2     0.900000E-01   1.00800           0
      9782 MEMB     74       POPS     H9Y      HAL2     0.900000E-01   1.00800           0
      9783 MEMB     74       POPS     C310     CTL2    -0.180000       12.0110           0
      9784 MEMB     74       POPS     H10X     HAL2     0.900000E-01   1.00800           0
      9785 MEMB     74       POPS     H10Y     HAL2     0.900000E-01   1.00800           0
      9786 MEMB     74       POPS     C311     CTL2    -0.180000       12.0110           0
      9787 MEMB     74       POPS     H11X     HAL2     0.900000E-01   1.00800           0
      9788 MEMB     74       POPS     H11Y     HAL2     0.900000E-01   1.00800           0
      9789 MEMB     74       POPS     C312     CTL2    -0.180000       12.0110           0
      9790 MEMB     74       POPS     H12X     HAL2     0.900000E-01   1.00800           0
      9791 MEMB     74       POPS     H12Y     HAL2     0.900000E-01   1.00800           0
      9792 MEMB     74       POPS     C313     CTL2    -0.180000       12.0110           0
      9793 MEMB     74       POPS     H13X     HAL2     0.900000E-01   1.00800           0
      9794 MEMB     74       POPS     H13Y     HAL2     0.900000E-01   1.00800           0
      9795 MEMB     74       POPS     C314     CTL2    -0.180000       12.0110           0
      9796 MEMB     74       POPS     H14X     HAL2     0.900000E-01   1.00800           0
      9797 MEMB     74       POPS     H14Y     HAL2     0.900000E-01   1.00800           0
      9798 MEMB     74       POPS     C315     CTL2    -0.180000       12.0110           0
      9799 MEMB     74       POPS     H15X     HAL2     0.900000E-01   1.00800           0
      9800 MEMB     74       POPS     H15Y     HAL2     0.900000E-01   1.00800           0
      9801 MEMB     74       POPS     C316     CTL3    -0.270000       12.0110           0
      9802 MEMB     74       POPS     H16X     HAL3     0.900000E-01   1.00800           0
      9803 MEMB     74       POPS     H16Y     HAL3     0.900000E-01   1.00800           0
      9804 MEMB     74       POPS     H16Z     HAL3     0.900000E-01   1.00800           0
      9805 MEMB     75       POPC     N        NTL     -0.600000       14.0070           0
      9806 MEMB     75       POPC     C12      CTL2    -0.100000       12.0110           0
      9807 MEMB     75       POPC     H12A     HL       0.250000       1.00800           0
      9808 MEMB     75       POPC     H12B     HL       0.250000       1.00800           0
      9809 MEMB     75       POPC     C13      CTL5    -0.350000       12.0110           0
      9810 MEMB     75       POPC     H13A     HL       0.250000       1.00800           0
      9811 MEMB     75       POPC     H13B     HL       0.250000       1.00800           0
      9812 MEMB     75       POPC     H13C     HL       0.250000       1.00800           0
      9813 MEMB     75       POPC     C14      CTL5    -0.350000       12.0110           0
      9814 MEMB     75       POPC     H14A     HL       0.250000       1.00800           0
      9815 MEMB     75       POPC     H14B     HL       0.250000       1.00800           0
      9816 MEMB     75       POPC     H14C     HL       0.250000       1.00800           0
      9817 MEMB     75       POPC     C15      CTL5    -0.350000       12.0110           0
      9818 MEMB     75       POPC     H15A     HL       0.250000       1.00800           0
      9819 MEMB     75       POPC     H15B     HL       0.250000       1.00800           0
      9820 MEMB     75       POPC     H15C     HL       0.250000       1.00800           0
      9821 MEMB     75       POPC     C11      CTL2    -0.800000E-01   12.0110           0
      9822 MEMB     75       POPC     H11A     HAL2     0.900000E-01   1.00800           0
      9823 MEMB     75       POPC     H11B     HAL2     0.900000E-01   1.00800           0
      9824 MEMB     75       POPC     P        PL        1.50000       30.9740           0
      9825 MEMB     75       POPC     O13      O2L     -0.780000       15.9994           0
      9826 MEMB     75       POPC     O14      O2L     -0.780000       15.9994           0
      9827 MEMB     75       POPC     O12      OSLP    -0.570000       15.9994           0
      9828 MEMB     75       POPC     O11      OSLP    -0.570000       15.9994           0
      9829 MEMB     75       POPC     C1       CTL2    -0.800000E-01   12.0110           0
      9830 MEMB     75       POPC     HA       HAL2     0.900000E-01   1.00800           0
      9831 MEMB     75       POPC     HB       HAL2     0.900000E-01   1.00800           0
      9832 MEMB     75       POPC     C2       CTL1     0.170000       12.0110           0
      9833 MEMB     75       POPC     HS       HAL1     0.900000E-01   1.00800           0
      9834 MEMB     75       POPC     O21      OSL     -0.490000       15.9994           0
      9835 MEMB     75       POPC     C21      CL       0.900000       12.0110           0
      9836 MEMB     75       POPC     O22      OBL     -0.630000       15.9994           0
      9837 MEMB     75       POPC     C22      CTL2    -0.220000       12.0110           0
      9838 MEMB     75       POPC     H2R      HAL2     0.900000E-01   1.00800           0
      9839 MEMB     75       POPC     H2S      HAL2     0.900000E-01   1.00800           0
      9840 MEMB     75       POPC     C3       CTL2     0.800000E-01   12.0110           0
      9841 MEMB     75       POPC     HX       HAL2     0.900000E-01   1.00800           0
      9842 MEMB     75       POPC     HY       HAL2     0.900000E-01   1.00800           0
      9843 MEMB     75       POPC     O31      OSL     -0.490000       15.9994           0
      9844 MEMB     75       POPC     C31      CL       0.900000       12.0110           0
      9845 MEMB     75       POPC     O32      OBL     -0.630000       15.9994           0
      9846 MEMB     75       POPC     C32      CTL2    -0.220000       12.0110           0
      9847 MEMB     75       POPC     H2X      HAL2     0.900000E-01   1.00800           0
      9848 MEMB     75       POPC     H2Y      HAL2     0.900000E-01   1.00800           0
      9849 MEMB     75       POPC     C23      CTL2    -0.180000       12.0110           0
      9850 MEMB     75       POPC     H3R      HAL2     0.900000E-01   1.00800           0
      9851 MEMB     75       POPC     H3S      HAL2     0.900000E-01   1.00800           0
      9852 MEMB     75       POPC     C24      CTL2    -0.180000       12.0110           0
      9853 MEMB     75       POPC     H4R      HAL2     0.900000E-01   1.00800           0
      9854 MEMB     75       POPC     H4S      HAL2     0.900000E-01   1.00800           0
      9855 MEMB     75       POPC     C25      CTL2    -0.180000       12.0110           0
      9856 MEMB     75       POPC     H5R      HAL2     0.900000E-01   1.00800           0
      9857 MEMB     75       POPC     H5S      HAL2     0.900000E-01   1.00800           0
      9858 MEMB     75       POPC     C26      CTL2    -0.180000       12.0110           0
      9859 MEMB     75       POPC     H6R      HAL2     0.900000E-01   1.00800           0
      9860 MEMB     75       POPC     H6S      HAL2     0.900000E-01   1.00800           0
      9861 MEMB     75       POPC     C27      CTL2    -0.180000       12.0110           0
      9862 MEMB     75       POPC     H7R      HAL2     0.900000E-01   1.00800           0
      9863 MEMB     75       POPC     H7S      HAL2     0.900000E-01   1.00800           0
      9864 MEMB     75       POPC     C28      CTL2    -0.180000       12.0110           0
      9865 MEMB     75       POPC     H8R      HAL2     0.900000E-01   1.00800           0
      9866 MEMB     75       POPC     H8S      HAL2     0.900000E-01   1.00800           0
      9867 MEMB     75       POPC     C29      CEL1    -0.150000       12.0110           0
      9868 MEMB     75       POPC     H91      HEL1     0.150000       1.00800           0
      9869 MEMB     75       POPC     C210     CEL1    -0.150000       12.0110           0
      9870 MEMB     75       POPC     H101     HEL1     0.150000       1.00800           0
      9871 MEMB     75       POPC     C211     CTL2    -0.180000       12.0110           0
      9872 MEMB     75       POPC     H11R     HAL2     0.900000E-01   1.00800           0
      9873 MEMB     75       POPC     H11S     HAL2     0.900000E-01   1.00800           0
      9874 MEMB     75       POPC     C212     CTL2    -0.180000       12.0110           0
      9875 MEMB     75       POPC     H12R     HAL2     0.900000E-01   1.00800           0
      9876 MEMB     75       POPC     H12S     HAL2     0.900000E-01   1.00800           0
      9877 MEMB     75       POPC     C213     CTL2    -0.180000       12.0110           0
      9878 MEMB     75       POPC     H13R     HAL2     0.900000E-01   1.00800           0
      9879 MEMB     75       POPC     H13S     HAL2     0.900000E-01   1.00800           0
      9880 MEMB     75       POPC     C214     CTL2    -0.180000       12.0110           0
      9881 MEMB     75       POPC     H14R     HAL2     0.900000E-01   1.00800           0
      9882 MEMB     75       POPC     H14S     HAL2     0.900000E-01   1.00800           0
      9883 MEMB     75       POPC     C215     CTL2    -0.180000       12.0110           0
      9884 MEMB     75       POPC     H15R     HAL2     0.900000E-01   1.00800           0
      9885 MEMB     75       POPC     H15S     HAL2     0.900000E-01   1.00800           0
      9886 MEMB     75       POPC     C216     CTL2    -0.180000       12.0110           0
      9887 MEMB     75       POPC     H16R     HAL2     0.900000E-01   1.00800           0
      9888 MEMB     75       POPC     H16S     HAL2     0.900000E-01   1.00800           0
      9889 MEMB     75       POPC     C217     CTL2    -0.180000       12.0110           0
      9890 MEMB     75       POPC     H17R     HAL2     0.900000E-01   1.00800           0
      9891 MEMB     75       POPC     H17S     HAL2     0.900000E-01   1.00800           0
      9892 MEMB     75       POPC     C218     CTL3    -0.270000       12.0110           0
      9893 MEMB     75       POPC     H18R     HAL3     0.900000E-01   1.00800           0
      9894 MEMB     75       POPC     H18S     HAL3     0.900000E-01   1.00800           0
      9895 MEMB     75       POPC     H18T     HAL3     0.900000E-01   1.00800           0
      9896 MEMB     75       POPC     C33      CTL2    -0.180000       12.0110           0
      9897 MEMB     75       POPC     H3X      HAL2     0.900000E-01   1.00800           0
      9898 MEMB     75       POPC     H3Y      HAL2     0.900000E-01   1.00800           0
      9899 MEMB     75       POPC     C34      CTL2    -0.180000       12.0110           0
      9900 MEMB     75       POPC     H4X      HAL2     0.900000E-01   1.00800           0
      9901 MEMB     75       POPC     H4Y      HAL2     0.900000E-01   1.00800           0
      9902 MEMB     75       POPC     C35      CTL2    -0.180000       12.0110           0
      9903 MEMB     75       POPC     H5X      HAL2     0.900000E-01   1.00800           0
      9904 MEMB     75       POPC     H5Y      HAL2     0.900000E-01   1.00800           0
      9905 MEMB     75       POPC     C36      CTL2    -0.180000       12.0110           0
      9906 MEMB     75       POPC     H6X      HAL2     0.900000E-01   1.00800           0
      9907 MEMB     75       POPC     H6Y      HAL2     0.900000E-01   1.00800           0
      9908 MEMB     75       POPC     C37      CTL2    -0.180000       12.0110           0
      9909 MEMB     75       POPC     H7X      HAL2     0.900000E-01   1.00800           0
      9910 MEMB     75       POPC     H7Y      HAL2     0.900000E-01   1.00800           0
      9911 MEMB     75       POPC     C38      CTL2    -0.180000       12.0110           0
      9912 MEMB     75       POPC     H8X      HAL2     0.900000E-01   1.00800           0
      9913 MEMB     75       POPC     H8Y      HAL2     0.900000E-01   1.00800           0
      9914 MEMB     75       POPC     C39      CTL2    -0.180000       12.0110           0
      9915 MEMB     75       POPC     H9X      HAL2     0.900000E-01   1.00800           0
      9916 MEMB     75       POPC     H9Y      HAL2     0.900000E-01   1.00800           0
      9917 MEMB     75       POPC     C310     CTL2    -0.180000       12.0110           0
      9918 MEMB     75       POPC     H10X     HAL2     0.900000E-01   1.00800           0
      9919 MEMB     75       POPC     H10Y     HAL2     0.900000E-01   1.00800           0
      9920 MEMB     75       POPC     C311     CTL2    -0.180000       12.0110           0
      9921 MEMB     75       POPC     H11X     HAL2     0.900000E-01   1.00800           0
      9922 MEMB     75       POPC     H11Y     HAL2     0.900000E-01   1.00800           0
      9923 MEMB     75       POPC     C312     CTL2    -0.180000       12.0110           0
      9924 MEMB     75       POPC     H12X     HAL2     0.900000E-01   1.00800           0
      9925 MEMB     75       POPC     H12Y     HAL2     0.900000E-01   1.00800           0
      9926 MEMB     75       POPC     C313     CTL2    -0.180000       12.0110           0
      9927 MEMB     75       POPC     H13X     HAL2     0.900000E-01   1.00800           0
      9928 MEMB     75       POPC     H13Y     HAL2     0.900000E-01   1.00800           0
      9929 MEMB     75       POPC     C314     CTL2    -0.180000       12.0110           0
      9930 MEMB     75       POPC     H14X     HAL2     0.900000E-01   1.00800           0
      9931 MEMB     75       POPC     H14Y     HAL2     0.900000E-01   1.00800           0
      9932 MEMB     75       POPC     C315     CTL2    -0.180000       12.0110           0
      9933 MEMB     75       POPC     H15X     HAL2     0.900000E-01   1.00800           0
      9934 MEMB     75       POPC     H15Y     HAL2     0.900000E-01   1.00800           0
      9935 MEMB     75       POPC     C316     CTL3    -0.270000       12.0110           0
      9936 MEMB     75       POPC     H16X     HAL3     0.900000E-01   1.00800           0
      9937 MEMB     75       POPC     H16Y     HAL3     0.900000E-01   1.00800           0
      9938 MEMB     75       POPC     H16Z     HAL3     0.900000E-01   1.00800           0
      9939 MEMB     76       POPC     N        NTL     -0.600000       14.0070           0
      9940 MEMB     76       POPC     C12      CTL2    -0.100000       12.0110           0
      9941 MEMB     76       POPC     H12A     HL       0.250000       1.00800           0
      9942 MEMB     76       POPC     H12B     HL       0.250000       1.00800           0
      9943 MEMB     76       POPC     C13      CTL5    -0.350000       12.0110           0
      9944 MEMB     76       POPC     H13A     HL       0.250000       1.00800           0
      9945 MEMB     76       POPC     H13B     HL       0.250000       1.00800           0
      9946 MEMB     76       POPC     H13C     HL       0.250000       1.00800           0
      9947 MEMB     76       POPC     C14      CTL5    -0.350000       12.0110           0
      9948 MEMB     76       POPC     H14A     HL       0.250000       1.00800           0
      9949 MEMB     76       POPC     H14B     HL       0.250000       1.00800           0
      9950 MEMB     76       POPC     H14C     HL       0.250000       1.00800           0
      9951 MEMB     76       POPC     C15      CTL5    -0.350000       12.0110           0
      9952 MEMB     76       POPC     H15A     HL       0.250000       1.00800           0
      9953 MEMB     76       POPC     H15B     HL       0.250000       1.00800           0
      9954 MEMB     76       POPC     H15C     HL       0.250000       1.00800           0
      9955 MEMB     76       POPC     C11      CTL2    -0.800000E-01   12.0110           0
      9956 MEMB     76       POPC     H11A     HAL2     0.900000E-01   1.00800           0
      9957 MEMB     76       POPC     H11B     HAL2     0.900000E-01   1.00800           0
      9958 MEMB     76       POPC     P        PL        1.50000       30.9740           0
      9959 MEMB     76       POPC     O13      O2L     -0.780000       15.9994           0
      9960 MEMB     76       POPC     O14      O2L     -0.780000       15.9994           0
      9961 MEMB     76       POPC     O12      OSLP    -0.570000       15.9994           0
      9962 MEMB     76       POPC     O11      OSLP    -0.570000       15.9994           0
      9963 MEMB     76       POPC     C1       CTL2    -0.800000E-01   12.0110           0
      9964 MEMB     76       POPC     HA       HAL2     0.900000E-01   1.00800           0
      9965 MEMB     76       POPC     HB       HAL2     0.900000E-01   1.00800           0
      9966 MEMB     76       POPC     C2       CTL1     0.170000       12.0110           0
      9967 MEMB     76       POPC     HS       HAL1     0.900000E-01   1.00800           0
      9968 MEMB     76       POPC     O21      OSL     -0.490000       15.9994           0
      9969 MEMB     76       POPC     C21      CL       0.900000       12.0110           0
      9970 MEMB     76       POPC     O22      OBL     -0.630000       15.9994           0
      9971 MEMB     76       POPC     C22      CTL2    -0.220000       12.0110           0
      9972 MEMB     76       POPC     H2R      HAL2     0.900000E-01   1.00800           0
      9973 MEMB     76       POPC     H2S      HAL2     0.900000E-01   1.00800           0
      9974 MEMB     76       POPC     C3       CTL2     0.800000E-01   12.0110           0
      9975 MEMB     76       POPC     HX       HAL2     0.900000E-01   1.00800           0
      9976 MEMB     76       POPC     HY       HAL2     0.900000E-01   1.00800           0
      9977 MEMB     76       POPC     O31      OSL     -0.490000       15.9994           0
      9978 MEMB     76       POPC     C31      CL       0.900000       12.0110           0
      9979 MEMB     76       POPC     O32      OBL     -0.630000       15.9994           0
      9980 MEMB     76       POPC     C32      CTL2    -0.220000       12.0110           0
      9981 MEMB     76       POPC     H2X      HAL2     0.900000E-01   1.00800           0
      9982 MEMB     76       POPC     H2Y      HAL2     0.900000E-01   1.00800           0
      9983 MEMB     76       POPC     C23      CTL2    -0.180000       12.0110           0
      9984 MEMB     76       POPC     H3R      HAL2     0.900000E-01   1.00800           0
      9985 MEMB     76       POPC     H3S      HAL2     0.900000E-01   1.00800           0
      9986 MEMB     76       POPC     C24      CTL2    -0.180000       12.0110           0
      9987 MEMB     76       POPC     H4R      HAL2     0.900000E-01   1.00800           0
      9988 MEMB     76       POPC     H4S      HAL2     0.900000E-01   1.00800           0
      9989 MEMB     76       POPC     C25      CTL2    -0.180000       12.0110           0
      9990 MEMB     76       POPC     H5R      HAL2     0.900000E-01   1.00800           0
      9991 MEMB     76       POPC     H5S      HAL2     0.900000E-01   1.00800           0
      9992 MEMB     76       POPC     C26      CTL2    -0.180000       12.0110           0
      9993 MEMB     76       POPC     H6R      HAL2     0.900000E-01   1.00800           0
      9994 MEMB     76       POPC     H6S      HAL2     0.900000E-01   1.00800           0
      9995 MEMB     76       POPC     C27      CTL2    -0.180000       12.0110           0
      9996 MEMB     76       POPC     H7R      HAL2     0.900000E-01   1.00800           0
      9997 MEMB     76       POPC     H7S      HAL2     0.900000E-01   1.00800           0
      9998 MEMB     76       POPC     C28      CTL2    -0.180000       12.0110           0
      9999 MEMB     76       POPC     H8R      HAL2     0.900000E-01   1.00800           0
     10000 MEMB     76       POPC     H8S      HAL2     0.900000E-01   1.00800           0
     10001 MEMB     76       POPC     C29      CEL1    -0.150000       12.0110           0
     10002 MEMB     76       POPC     H91      HEL1     0.150000       1.00800           0
     10003 MEMB     76       POPC     C210     CEL1    -0.150000       12.0110           0
     10004 MEMB     76       POPC     H101     HEL1     0.150000       1.00800           0
     10005 MEMB     76       POPC     C211     CTL2    -0.180000       12.0110           0
     10006 MEMB     76       POPC     H11R     HAL2     0.900000E-01   1.00800           0
     10007 MEMB     76       POPC     H11S     HAL2     0.900000E-01   1.00800           0
     10008 MEMB     76       POPC     C212     CTL2    -0.180000       12.0110           0
     10009 MEMB     76       POPC     H12R     HAL2     0.900000E-01   1.00800           0
     10010 MEMB     76       POPC     H12S     HAL2     0.900000E-01   1.00800           0
     10011 MEMB     76       POPC     C213     CTL2    -0.180000       12.0110           0
     10012 MEMB     76       POPC     H13R     HAL2     0.900000E-01   1.00800           0
     10013 MEMB     76       POPC     H13S     HAL2     0.900000E-01   1.00800           0
     10014 MEMB     76       POPC     C214     CTL2    -0.180000       12.0110           0
     10015 MEMB     76       POPC     H14R     HAL2     0.900000E-01   1.00800           0
     10016 MEMB     76       POPC     H14S     HAL2     0.900000E-01   1.00800           0
     10017 MEMB     76       POPC     C215     CTL2    -0.180000       12.0110           0
     10018 MEMB     76       POPC     H15R     HAL2     0.900000E-01   1.00800           0
     10019 MEMB     76       POPC     H15S     HAL2     0.900000E-01   1.00800           0
     10020 MEMB     76       POPC     C216     CTL2    -0.180000       12.0110           0
     10021 MEMB     76       POPC     H16R     HAL2     0.900000E-01   1.00800           0
     10022 MEMB     76       POPC     H16S     HAL2     0.900000E-01   1.00800           0
     10023 MEMB     76       POPC     C217     CTL2    -0.180000       12.0110           0
     10024 MEMB     76       POPC     H17R     HAL2     0.900000E-01   1.00800           0
     10025 MEMB     76       POPC     H17S     HAL2     0.900000E-01   1.00800           0
     10026 MEMB     76       POPC     C218     CTL3    -0.270000       12.0110           0
     10027 MEMB     76       POPC     H18R     HAL3     0.900000E-01   1.00800           0
     10028 MEMB     76       POPC     H18S     HAL3     0.900000E-01   1.00800           0
     10029 MEMB     76       POPC     H18T     HAL3     0.900000E-01   1.00800           0
     10030 MEMB     76       POPC     C33      CTL2    -0.180000       12.0110           0
     10031 MEMB     76       POPC     H3X      HAL2     0.900000E-01   1.00800           0
     10032 MEMB     76       POPC     H3Y      HAL2     0.900000E-01   1.00800           0
     10033 MEMB     76       POPC     C34      CTL2    -0.180000       12.0110           0
     10034 MEMB     76       POPC     H4X      HAL2     0.900000E-01   1.00800           0
     10035 MEMB     76       POPC     H4Y      HAL2     0.900000E-01   1.00800           0
     10036 MEMB     76       POPC     C35      CTL2    -0.180000       12.0110           0
     10037 MEMB     76       POPC     H5X      HAL2     0.900000E-01   1.00800           0
     10038 MEMB     76       POPC     H5Y      HAL2     0.900000E-01   1.00800           0
     10039 MEMB     76       POPC     C36      CTL2    -0.180000       12.0110           0
     10040 MEMB     76       POPC     H6X      HAL2     0.900000E-01   1.00800           0
     10041 MEMB     76       POPC     H6Y      HAL2     0.900000E-01   1.00800           0
     10042 MEMB     76       POPC     C37      CTL2    -0.180000       12.0110           0
     10043 MEMB     76       POPC     H7X      HAL2     0.900000E-01   1.00800           0
     10044 MEMB     76       POPC     H7Y      HAL2     0.900000E-01   1.00800           0
     10045 MEMB     76       POPC     C38      CTL2    -0.180000       12.0110           0
     10046 MEMB     76       POPC     H8X      HAL2     0.900000E-01   1.00800           0
     10047 MEMB     76       POPC     H8Y      HAL2     0.900000E-01   1.00800           0
     10048 MEMB     76       POPC     C39      CTL2    -0.180000       12.0110           0
     10049 MEMB     76       POPC     H9X      HAL2     0.900000E-01   1.00800           0
     10050 MEMB     76       POPC     H9Y      HAL2     0.900000E-01   1.00800           0
     10051 MEMB     76       POPC     C310     CTL2    -0.180000       12.0110           0
     10052 MEMB     76       POPC     H10X     HAL2     0.900000E-01   1.00800           0
     10053 MEMB     76       POPC     H10Y     HAL2     0.900000E-01   1.00800           0
     10054 MEMB     76       POPC     C311     CTL2    -0.180000       12.0110           0
     10055 MEMB     76       POPC     H11X     HAL2     0.900000E-01   1.00800           0
     10056 MEMB     76       POPC     H11Y     HAL2     0.900000E-01   1.00800           0
     10057 MEMB     76       POPC     C312     CTL2    -0.180000       12.0110           0
     10058 MEMB     76       POPC     H12X     HAL2     0.900000E-01   1.00800           0
     10059 MEMB     76       POPC     H12Y     HAL2     0.900000E-01   1.00800           0
     10060 MEMB     76       POPC     C313     CTL2    -0.180000       12.0110           0
     10061 MEMB     76       POPC     H13X     HAL2     0.900000E-01   1.00800           0
     10062 MEMB     76       POPC     H13Y     HAL2     0.900000E-01   1.00800           0
     10063 MEMB     76       POPC     C314     CTL2    -0.180000       12.0110           0
     10064 MEMB     76       POPC     H14X     HAL2     0.900000E-01   1.00800           0
     10065 MEMB     76       POPC     H14Y     HAL2     0.900000E-01   1.00800           0
     10066 MEMB     76       POPC     C315     CTL2    -0.180000       12.0110           0
     10067 MEMB     76       POPC     H15X     HAL2     0.900000E-01   1.00800           0
     10068 MEMB     76       POPC     H15Y     HAL2     0.900000E-01   1.00800           0
     10069 MEMB     76       POPC     C316     CTL3    -0.270000       12.0110           0
     10070 MEMB     76       POPC     H16X     HAL3     0.900000E-01   1.00800           0
     10071 MEMB     76       POPC     H16Y     HAL3     0.900000E-01   1.00800           0
     10072 MEMB     76       POPC     H16Z     HAL3     0.900000E-01   1.00800           0
     10073 MEMB     77       POPC     N        NTL     -0.600000       14.0070           0
     10074 MEMB     77       POPC     C12      CTL2    -0.100000       12.0110           0
     10075 MEMB     77       POPC     H12A     HL       0.250000       1.00800           0
     10076 MEMB     77       POPC     H12B     HL       0.250000       1.00800           0
     10077 MEMB     77       POPC     C13      CTL5    -0.350000       12.0110           0
     10078 MEMB     77       POPC     H13A     HL       0.250000       1.00800           0
     10079 MEMB     77       POPC     H13B     HL       0.250000       1.00800           0
     10080 MEMB     77       POPC     H13C     HL       0.250000       1.00800           0
     10081 MEMB     77       POPC     C14      CTL5    -0.350000       12.0110           0
     10082 MEMB     77       POPC     H14A     HL       0.250000       1.00800           0
     10083 MEMB     77       POPC     H14B     HL       0.250000       1.00800           0
     10084 MEMB     77       POPC     H14C     HL       0.250000       1.00800           0
     10085 MEMB     77       POPC     C15      CTL5    -0.350000       12.0110           0
     10086 MEMB     77       POPC     H15A     HL       0.250000       1.00800           0
     10087 MEMB     77       POPC     H15B     HL       0.250000       1.00800           0
     10088 MEMB     77       POPC     H15C     HL       0.250000       1.00800           0
     10089 MEMB     77       POPC     C11      CTL2    -0.800000E-01   12.0110           0
     10090 MEMB     77       POPC     H11A     HAL2     0.900000E-01   1.00800           0
     10091 MEMB     77       POPC     H11B     HAL2     0.900000E-01   1.00800           0
     10092 MEMB     77       POPC     P        PL        1.50000       30.9740           0
     10093 MEMB     77       POPC     O13      O2L     -0.780000       15.9994           0
     10094 MEMB     77       POPC     O14      O2L     -0.780000       15.9994           0
     10095 MEMB     77       POPC     O12      OSLP    -0.570000       15.9994           0
     10096 MEMB     77       POPC     O11      OSLP    -0.570000       15.9994           0
     10097 MEMB     77       POPC     C1       CTL2    -0.800000E-01   12.0110           0
     10098 MEMB     77       POPC     HA       HAL2     0.900000E-01   1.00800           0
     10099 MEMB     77       POPC     HB       HAL2     0.900000E-01   1.00800           0
     10100 MEMB     77       POPC     C2       CTL1     0.170000       12.0110           0
     10101 MEMB     77       POPC     HS       HAL1     0.900000E-01   1.00800           0
     10102 MEMB     77       POPC     O21      OSL     -0.490000       15.9994           0
     10103 MEMB     77       POPC     C21      CL       0.900000       12.0110           0
     10104 MEMB     77       POPC     O22      OBL     -0.630000       15.9994           0
     10105 MEMB     77       POPC     C22      CTL2    -0.220000       12.0110           0
     10106 MEMB     77       POPC     H2R      HAL2     0.900000E-01   1.00800           0
     10107 MEMB     77       POPC     H2S      HAL2     0.900000E-01   1.00800           0
     10108 MEMB     77       POPC     C3       CTL2     0.800000E-01   12.0110           0
     10109 MEMB     77       POPC     HX       HAL2     0.900000E-01   1.00800           0
     10110 MEMB     77       POPC     HY       HAL2     0.900000E-01   1.00800           0
     10111 MEMB     77       POPC     O31      OSL     -0.490000       15.9994           0
     10112 MEMB     77       POPC     C31      CL       0.900000       12.0110           0
     10113 MEMB     77       POPC     O32      OBL     -0.630000       15.9994           0
     10114 MEMB     77       POPC     C32      CTL2    -0.220000       12.0110           0
     10115 MEMB     77       POPC     H2X      HAL2     0.900000E-01   1.00800           0
     10116 MEMB     77       POPC     H2Y      HAL2     0.900000E-01   1.00800           0
     10117 MEMB     77       POPC     C23      CTL2    -0.180000       12.0110           0
     10118 MEMB     77       POPC     H3R      HAL2     0.900000E-01   1.00800           0
     10119 MEMB     77       POPC     H3S      HAL2     0.900000E-01   1.00800           0
     10120 MEMB     77       POPC     C24      CTL2    -0.180000       12.0110           0
     10121 MEMB     77       POPC     H4R      HAL2     0.900000E-01   1.00800           0
     10122 MEMB     77       POPC     H4S      HAL2     0.900000E-01   1.00800           0
     10123 MEMB     77       POPC     C25      CTL2    -0.180000       12.0110           0
     10124 MEMB     77       POPC     H5R      HAL2     0.900000E-01   1.00800           0
     10125 MEMB     77       POPC     H5S      HAL2     0.900000E-01   1.00800           0
     10126 MEMB     77       POPC     C26      CTL2    -0.180000       12.0110           0
     10127 MEMB     77       POPC     H6R      HAL2     0.900000E-01   1.00800           0
     10128 MEMB     77       POPC     H6S      HAL2     0.900000E-01   1.00800           0
     10129 MEMB     77       POPC     C27      CTL2    -0.180000       12.0110           0
     10130 MEMB     77       POPC     H7R      HAL2     0.900000E-01   1.00800           0
     10131 MEMB     77       POPC     H7S      HAL2     0.900000E-01   1.00800           0
     10132 MEMB     77       POPC     C28      CTL2    -0.180000       12.0110           0
     10133 MEMB     77       POPC     H8R      HAL2     0.900000E-01   1.00800           0
     10134 MEMB     77       POPC     H8S      HAL2     0.900000E-01   1.00800           0
     10135 MEMB     77       POPC     C29      CEL1    -0.150000       12.0110           0
     10136 MEMB     77       POPC     H91      HEL1     0.150000       1.00800           0
     10137 MEMB     77       POPC     C210     CEL1    -0.150000       12.0110           0
     10138 MEMB     77       POPC     H101     HEL1     0.150000       1.00800           0
     10139 MEMB     77       POPC     C211     CTL2    -0.180000       12.0110           0
     10140 MEMB     77       POPC     H11R     HAL2     0.900000E-01   1.00800           0
     10141 MEMB     77       POPC     H11S     HAL2     0.900000E-01   1.00800           0
     10142 MEMB     77       POPC     C212     CTL2    -0.180000       12.0110           0
     10143 MEMB     77       POPC     H12R     HAL2     0.900000E-01   1.00800           0
     10144 MEMB     77       POPC     H12S     HAL2     0.900000E-01   1.00800           0
     10145 MEMB     77       POPC     C213     CTL2    -0.180000       12.0110           0
     10146 MEMB     77       POPC     H13R     HAL2     0.900000E-01   1.00800           0
     10147 MEMB     77       POPC     H13S     HAL2     0.900000E-01   1.00800           0
     10148 MEMB     77       POPC     C214     CTL2    -0.180000       12.0110           0
     10149 MEMB     77       POPC     H14R     HAL2     0.900000E-01   1.00800           0
     10150 MEMB     77       POPC     H14S     HAL2     0.900000E-01   1.00800           0
     10151 MEMB     77       POPC     C215     CTL2    -0.180000       12.0110           0
     10152 MEMB     77       POPC     H15R     HAL2     0.900000E-01   1.00800           0
     10153 MEMB     77       POPC     H15S     HAL2     0.900000E-01   1.00800           0
     10154 MEMB     77       POPC     C216     CTL2    -0.180000       12.0110           0
     10155 MEMB     77       POPC     H16R     HAL2     0.900000E-01   1.00800           0
     10156 MEMB     77       POPC     H16S     HAL2     0.900000E-01   1.00800           0
     10157 MEMB     77       POPC     C217     CTL2    -0.180000       12.0110           0
     10158 MEMB     77       POPC     H17R     HAL2     0.900000E-01   1.00800           0
     10159 MEMB     77       POPC     H17S     HAL2     0.900000E-01   1.00800           0
     10160 MEMB     77       POPC     C218     CTL3    -0.270000       12.0110           0
     10161 MEMB     77       POPC     H18R     HAL3     0.900000E-01   1.00800           0
     10162 MEMB     77       POPC     H18S     HAL3     0.900000E-01   1.00800           0
     10163 MEMB     77       POPC     H18T     HAL3     0.900000E-01   1.00800           0
     10164 MEMB     77       POPC     C33      CTL2    -0.180000       12.0110           0
     10165 MEMB     77       POPC     H3X      HAL2     0.900000E-01   1.00800           0
     10166 MEMB     77       POPC     H3Y      HAL2     0.900000E-01   1.00800           0
     10167 MEMB     77       POPC     C34      CTL2    -0.180000       12.0110           0
     10168 MEMB     77       POPC     H4X      HAL2     0.900000E-01   1.00800           0
     10169 MEMB     77       POPC     H4Y      HAL2     0.900000E-01   1.00800           0
     10170 MEMB     77       POPC     C35      CTL2    -0.180000       12.0110           0
     10171 MEMB     77       POPC     H5X      HAL2     0.900000E-01   1.00800           0
     10172 MEMB     77       POPC     H5Y      HAL2     0.900000E-01   1.00800           0
     10173 MEMB     77       POPC     C36      CTL2    -0.180000       12.0110           0
     10174 MEMB     77       POPC     H6X      HAL2     0.900000E-01   1.00800           0
     10175 MEMB     77       POPC     H6Y      HAL2     0.900000E-01   1.00800           0
     10176 MEMB     77       POPC     C37      CTL2    -0.180000       12.0110           0
     10177 MEMB     77       POPC     H7X      HAL2     0.900000E-01   1.00800           0
     10178 MEMB     77       POPC     H7Y      HAL2     0.900000E-01   1.00800           0
     10179 MEMB     77       POPC     C38      CTL2    -0.180000       12.0110           0
     10180 MEMB     77       POPC     H8X      HAL2     0.900000E-01   1.00800           0
     10181 MEMB     77       POPC     H8Y      HAL2     0.900000E-01   1.00800           0
     10182 MEMB     77       POPC     C39      CTL2    -0.180000       12.0110           0
     10183 MEMB     77       POPC     H9X      HAL2     0.900000E-01   1.00800           0
     10184 MEMB     77       POPC     H9Y      HAL2     0.900000E-01   1.00800           0
     10185 MEMB     77       POPC     C310     CTL2    -0.180000       12.0110           0
     10186 MEMB     77       POPC     H10X     HAL2     0.900000E-01   1.00800           0
     10187 MEMB     77       POPC     H10Y     HAL2     0.900000E-01   1.00800           0
     10188 MEMB     77       POPC     C311     CTL2    -0.180000       12.0110           0
     10189 MEMB     77       POPC     H11X     HAL2     0.900000E-01   1.00800           0
     10190 MEMB     77       POPC     H11Y     HAL2     0.900000E-01   1.00800           0
     10191 MEMB     77       POPC     C312     CTL2    -0.180000       12.0110           0
     10192 MEMB     77       POPC     H12X     HAL2     0.900000E-01   1.00800           0
     10193 MEMB     77       POPC     H12Y     HAL2     0.900000E-01   1.00800           0
     10194 MEMB     77       POPC     C313     CTL2    -0.180000       12.0110           0
     10195 MEMB     77       POPC     H13X     HAL2     0.900000E-01   1.00800           0
     10196 MEMB     77       POPC     H13Y     HAL2     0.900000E-01   1.00800           0
     10197 MEMB     77       POPC     C314     CTL2    -0.180000       12.0110           0
     10198 MEMB     77       POPC     H14X     HAL2     0.900000E-01   1.00800           0
     10199 MEMB     77       POPC     H14Y     HAL2     0.900000E-01   1.00800           0
     10200 MEMB     77       POPC     C315     CTL2    -0.180000       12.0110           0
     10201 MEMB     77       POPC     H15X     HAL2     0.900000E-01   1.00800           0
     10202 MEMB     77       POPC     H15Y     HAL2     0.900000E-01   1.00800           0
     10203 MEMB     77       POPC     C316     CTL3    -0.270000       12.0110           0
     10204 MEMB     77       POPC     H16X     HAL3     0.900000E-01   1.00800           0
     10205 MEMB     77       POPC     H16Y     HAL3     0.900000E-01   1.00800           0
     10206 MEMB     77       POPC     H16Z     HAL3     0.900000E-01   1.00800           0
     10207 MEMB     78       POPS     N        NH3L    -0.300000       14.0070           0
     10208 MEMB     78       POPS     HN1      HCL      0.330000       1.00800           0
     10209 MEMB     78       POPS     HN2      HCL      0.330000       1.00800           0
     10210 MEMB     78       POPS     HN3      HCL      0.330000       1.00800           0
     10211 MEMB     78       POPS     C12      CTL1     0.210000       12.0110           0
     10212 MEMB     78       POPS     H12A     HBL      0.100000       1.00800           0
     10213 MEMB     78       POPS     C13      CCL      0.340000       12.0110           0
     10214 MEMB     78       POPS     O13A     OCL     -0.670000       15.9994           0
     10215 MEMB     78       POPS     O13B     OCL     -0.670000       15.9994           0
     10216 MEMB     78       POPS     C11      CTL2    -0.800000E-01   12.0110           0
     10217 MEMB     78       POPS     H11A     HAL2     0.900000E-01   1.00800           0
     10218 MEMB     78       POPS     H11B     HAL2     0.900000E-01   1.00800           0
     10219 MEMB     78       POPS     P        PL        1.50000       30.9740           0
     10220 MEMB     78       POPS     O13      O2L     -0.780000       15.9994           0
     10221 MEMB     78       POPS     O14      O2L     -0.780000       15.9994           0
     10222 MEMB     78       POPS     O12      OSLP    -0.570000       15.9994           0
     10223 MEMB     78       POPS     O11      OSLP    -0.570000       15.9994           0
     10224 MEMB     78       POPS     C1       CTL2    -0.800000E-01   12.0110           0
     10225 MEMB     78       POPS     HA       HAL2     0.900000E-01   1.00800           0
     10226 MEMB     78       POPS     HB       HAL2     0.900000E-01   1.00800           0
     10227 MEMB     78       POPS     C2       CTL1     0.170000       12.0110           0
     10228 MEMB     78       POPS     HS       HAL1     0.900000E-01   1.00800           0
     10229 MEMB     78       POPS     O21      OSL     -0.490000       15.9994           0
     10230 MEMB     78       POPS     C21      CL       0.900000       12.0110           0
     10231 MEMB     78       POPS     O22      OBL     -0.630000       15.9994           0
     10232 MEMB     78       POPS     C22      CTL2    -0.220000       12.0110           0
     10233 MEMB     78       POPS     H2R      HAL2     0.900000E-01   1.00800           0
     10234 MEMB     78       POPS     H2S      HAL2     0.900000E-01   1.00800           0
     10235 MEMB     78       POPS     C3       CTL2     0.800000E-01   12.0110           0
     10236 MEMB     78       POPS     HX       HAL2     0.900000E-01   1.00800           0
     10237 MEMB     78       POPS     HY       HAL2     0.900000E-01   1.00800           0
     10238 MEMB     78       POPS     O31      OSL     -0.490000       15.9994           0
     10239 MEMB     78       POPS     C31      CL       0.900000       12.0110           0
     10240 MEMB     78       POPS     O32      OBL     -0.630000       15.9994           0
     10241 MEMB     78       POPS     C32      CTL2    -0.220000       12.0110           0
     10242 MEMB     78       POPS     H2X      HAL2     0.900000E-01   1.00800           0
     10243 MEMB     78       POPS     H2Y      HAL2     0.900000E-01   1.00800           0
     10244 MEMB     78       POPS     C23      CTL2    -0.180000       12.0110           0
     10245 MEMB     78       POPS     H3R      HAL2     0.900000E-01   1.00800           0
     10246 MEMB     78       POPS     H3S      HAL2     0.900000E-01   1.00800           0
     10247 MEMB     78       POPS     C24      CTL2    -0.180000       12.0110           0
     10248 MEMB     78       POPS     H4R      HAL2     0.900000E-01   1.00800           0
     10249 MEMB     78       POPS     H4S      HAL2     0.900000E-01   1.00800           0
     10250 MEMB     78       POPS     C25      CTL2    -0.180000       12.0110           0
     10251 MEMB     78       POPS     H5R      HAL2     0.900000E-01   1.00800           0
     10252 MEMB     78       POPS     H5S      HAL2     0.900000E-01   1.00800           0
     10253 MEMB     78       POPS     C26      CTL2    -0.180000       12.0110           0
     10254 MEMB     78       POPS     H6R      HAL2     0.900000E-01   1.00800           0
     10255 MEMB     78       POPS     H6S      HAL2     0.900000E-01   1.00800           0
     10256 MEMB     78       POPS     C27      CTL2    -0.180000       12.0110           0
     10257 MEMB     78       POPS     H7R      HAL2     0.900000E-01   1.00800           0
     10258 MEMB     78       POPS     H7S      HAL2     0.900000E-01   1.00800           0
     10259 MEMB     78       POPS     C28      CTL2    -0.180000       12.0110           0
     10260 MEMB     78       POPS     H8R      HAL2     0.900000E-01   1.00800           0
     10261 MEMB     78       POPS     H8S      HAL2     0.900000E-01   1.00800           0
     10262 MEMB     78       POPS     C29      CEL1    -0.150000       12.0110           0
     10263 MEMB     78       POPS     H91      HEL1     0.150000       1.00800           0
     10264 MEMB     78       POPS     C210     CEL1    -0.150000       12.0110           0
     10265 MEMB     78       POPS     H101     HEL1     0.150000       1.00800           0
     10266 MEMB     78       POPS     C211     CTL2    -0.180000       12.0110           0
     10267 MEMB     78       POPS     H11R     HAL2     0.900000E-01   1.00800           0
     10268 MEMB     78       POPS     H11S     HAL2     0.900000E-01   1.00800           0
     10269 MEMB     78       POPS     C212     CTL2    -0.180000       12.0110           0
     10270 MEMB     78       POPS     H12R     HAL2     0.900000E-01   1.00800           0
     10271 MEMB     78       POPS     H12S     HAL2     0.900000E-01   1.00800           0
     10272 MEMB     78       POPS     C213     CTL2    -0.180000       12.0110           0
     10273 MEMB     78       POPS     H13R     HAL2     0.900000E-01   1.00800           0
     10274 MEMB     78       POPS     H13S     HAL2     0.900000E-01   1.00800           0
     10275 MEMB     78       POPS     C214     CTL2    -0.180000       12.0110           0
     10276 MEMB     78       POPS     H14R     HAL2     0.900000E-01   1.00800           0
     10277 MEMB     78       POPS     H14S     HAL2     0.900000E-01   1.00800           0
     10278 MEMB     78       POPS     C215     CTL2    -0.180000       12.0110           0
     10279 MEMB     78       POPS     H15R     HAL2     0.900000E-01   1.00800           0
     10280 MEMB     78       POPS     H15S     HAL2     0.900000E-01   1.00800           0
     10281 MEMB     78       POPS     C216     CTL2    -0.180000       12.0110           0
     10282 MEMB     78       POPS     H16R     HAL2     0.900000E-01   1.00800           0
     10283 MEMB     78       POPS     H16S     HAL2     0.900000E-01   1.00800           0
     10284 MEMB     78       POPS     C217     CTL2    -0.180000       12.0110           0
     10285 MEMB     78       POPS     H17R     HAL2     0.900000E-01   1.00800           0
     10286 MEMB     78       POPS     H17S     HAL2     0.900000E-01   1.00800           0
     10287 MEMB     78       POPS     C218     CTL3    -0.270000       12.0110           0
     10288 MEMB     78       POPS     H18R     HAL3     0.900000E-01   1.00800           0
     10289 MEMB     78       POPS     H18S     HAL3     0.900000E-01   1.00800           0
     10290 MEMB     78       POPS     H18T     HAL3     0.900000E-01   1.00800           0
     10291 MEMB     78       POPS     C33      CTL2    -0.180000       12.0110           0
     10292 MEMB     78       POPS     H3X      HAL2     0.900000E-01   1.00800           0
     10293 MEMB     78       POPS     H3Y      HAL2     0.900000E-01   1.00800           0
     10294 MEMB     78       POPS     C34      CTL2    -0.180000       12.0110           0
     10295 MEMB     78       POPS     H4X      HAL2     0.900000E-01   1.00800           0
     10296 MEMB     78       POPS     H4Y      HAL2     0.900000E-01   1.00800           0
     10297 MEMB     78       POPS     C35      CTL2    -0.180000       12.0110           0
     10298 MEMB     78       POPS     H5X      HAL2     0.900000E-01   1.00800           0
     10299 MEMB     78       POPS     H5Y      HAL2     0.900000E-01   1.00800           0
     10300 MEMB     78       POPS     C36      CTL2    -0.180000       12.0110           0
     10301 MEMB     78       POPS     H6X      HAL2     0.900000E-01   1.00800           0
     10302 MEMB     78       POPS     H6Y      HAL2     0.900000E-01   1.00800           0
     10303 MEMB     78       POPS     C37      CTL2    -0.180000       12.0110           0
     10304 MEMB     78       POPS     H7X      HAL2     0.900000E-01   1.00800           0
     10305 MEMB     78       POPS     H7Y      HAL2     0.900000E-01   1.00800           0
     10306 MEMB     78       POPS     C38      CTL2    -0.180000       12.0110           0
     10307 MEMB     78       POPS     H8X      HAL2     0.900000E-01   1.00800           0
     10308 MEMB     78       POPS     H8Y      HAL2     0.900000E-01   1.00800           0
     10309 MEMB     78       POPS     C39      CTL2    -0.180000       12.0110           0
     10310 MEMB     78       POPS     H9X      HAL2     0.900000E-01   1.00800           0
     10311 MEMB     78       POPS     H9Y      HAL2     0.900000E-01   1.00800           0
     10312 MEMB     78       POPS     C310     CTL2    -0.180000       12.0110           0
     10313 MEMB     78       POPS     H10X     HAL2     0.900000E-01   1.00800           0
     10314 MEMB     78       POPS     H10Y     HAL2     0.900000E-01   1.00800           0
     10315 MEMB     78       POPS     C311     CTL2    -0.180000       12.0110           0
     10316 MEMB     78       POPS     H11X     HAL2     0.900000E-01   1.00800           0
     10317 MEMB     78       POPS     H11Y     HAL2     0.900000E-01   1.00800           0
     10318 MEMB     78       POPS     C312     CTL2    -0.180000       12.0110           0
     10319 MEMB     78       POPS     H12X     HAL2     0.900000E-01   1.00800           0
     10320 MEMB     78       POPS     H12Y     HAL2     0.900000E-01   1.00800           0
     10321 MEMB     78       POPS     C313     CTL2    -0.180000       12.0110           0
     10322 MEMB     78       POPS     H13X     HAL2     0.900000E-01   1.00800           0
     10323 MEMB     78       POPS     H13Y     HAL2     0.900000E-01   1.00800           0
     10324 MEMB     78       POPS     C314     CTL2    -0.180000       12.0110           0
     10325 MEMB     78       POPS     H14X     HAL2     0.900000E-01   1.00800           0
     10326 MEMB     78       POPS     H14Y     HAL2     0.900000E-01   1.00800           0
     10327 MEMB     78       POPS     C315     CTL2    -0.180000       12.0110           0
     10328 MEMB     78       POPS     H15X     HAL2     0.900000E-01   1.00800           0
     10329 MEMB     78       POPS     H15Y     HAL2     0.900000E-01   1.00800           0
     10330 MEMB     78       POPS     C316     CTL3    -0.270000       12.0110           0
     10331 MEMB     78       POPS     H16X     HAL3     0.900000E-01   1.00800           0
     10332 MEMB     78       POPS     H16Y     HAL3     0.900000E-01   1.00800           0
     10333 MEMB     78       POPS     H16Z     HAL3     0.900000E-01   1.00800           0
     10334 MEMB     79       POPC     N        NTL     -0.600000       14.0070           0
     10335 MEMB     79       POPC     C12      CTL2    -0.100000       12.0110           0
     10336 MEMB     79       POPC     H12A     HL       0.250000       1.00800           0
     10337 MEMB     79       POPC     H12B     HL       0.250000       1.00800           0
     10338 MEMB     79       POPC     C13      CTL5    -0.350000       12.0110           0
     10339 MEMB     79       POPC     H13A     HL       0.250000       1.00800           0
     10340 MEMB     79       POPC     H13B     HL       0.250000       1.00800           0
     10341 MEMB     79       POPC     H13C     HL       0.250000       1.00800           0
     10342 MEMB     79       POPC     C14      CTL5    -0.350000       12.0110           0
     10343 MEMB     79       POPC     H14A     HL       0.250000       1.00800           0
     10344 MEMB     79       POPC     H14B     HL       0.250000       1.00800           0
     10345 MEMB     79       POPC     H14C     HL       0.250000       1.00800           0
     10346 MEMB     79       POPC     C15      CTL5    -0.350000       12.0110           0
     10347 MEMB     79       POPC     H15A     HL       0.250000       1.00800           0
     10348 MEMB     79       POPC     H15B     HL       0.250000       1.00800           0
     10349 MEMB     79       POPC     H15C     HL       0.250000       1.00800           0
     10350 MEMB     79       POPC     C11      CTL2    -0.800000E-01   12.0110           0
     10351 MEMB     79       POPC     H11A     HAL2     0.900000E-01   1.00800           0
     10352 MEMB     79       POPC     H11B     HAL2     0.900000E-01   1.00800           0
     10353 MEMB     79       POPC     P        PL        1.50000       30.9740           0
     10354 MEMB     79       POPC     O13      O2L     -0.780000       15.9994           0
     10355 MEMB     79       POPC     O14      O2L     -0.780000       15.9994           0
     10356 MEMB     79       POPC     O12      OSLP    -0.570000       15.9994           0
     10357 MEMB     79       POPC     O11      OSLP    -0.570000       15.9994           0
     10358 MEMB     79       POPC     C1       CTL2    -0.800000E-01   12.0110           0
     10359 MEMB     79       POPC     HA       HAL2     0.900000E-01   1.00800           0
     10360 MEMB     79       POPC     HB       HAL2     0.900000E-01   1.00800           0
     10361 MEMB     79       POPC     C2       CTL1     0.170000       12.0110           0
     10362 MEMB     79       POPC     HS       HAL1     0.900000E-01   1.00800           0
     10363 MEMB     79       POPC     O21      OSL     -0.490000       15.9994           0
     10364 MEMB     79       POPC     C21      CL       0.900000       12.0110           0
     10365 MEMB     79       POPC     O22      OBL     -0.630000       15.9994           0
     10366 MEMB     79       POPC     C22      CTL2    -0.220000       12.0110           0
     10367 MEMB     79       POPC     H2R      HAL2     0.900000E-01   1.00800           0
     10368 MEMB     79       POPC     H2S      HAL2     0.900000E-01   1.00800           0
     10369 MEMB     79       POPC     C3       CTL2     0.800000E-01   12.0110           0
     10370 MEMB     79       POPC     HX       HAL2     0.900000E-01   1.00800           0
     10371 MEMB     79       POPC     HY       HAL2     0.900000E-01   1.00800           0
     10372 MEMB     79       POPC     O31      OSL     -0.490000       15.9994           0
     10373 MEMB     79       POPC     C31      CL       0.900000       12.0110           0
     10374 MEMB     79       POPC     O32      OBL     -0.630000       15.9994           0
     10375 MEMB     79       POPC     C32      CTL2    -0.220000       12.0110           0
     10376 MEMB     79       POPC     H2X      HAL2     0.900000E-01   1.00800           0
     10377 MEMB     79       POPC     H2Y      HAL2     0.900000E-01   1.00800           0
     10378 MEMB     79       POPC     C23      CTL2    -0.180000       12.0110           0
     10379 MEMB     79       POPC     H3R      HAL2     0.900000E-01   1.00800           0
     10380 MEMB     79       POPC     H3S      HAL2     0.900000E-01   1.00800           0
     10381 MEMB     79       POPC     C24      CTL2    -0.180000       12.0110           0
     10382 MEMB     79       POPC     H4R      HAL2     0.900000E-01   1.00800           0
     10383 MEMB     79       POPC     H4S      HAL2     0.900000E-01   1.00800           0
     10384 MEMB     79       POPC     C25      CTL2    -0.180000       12.0110           0
     10385 MEMB     79       POPC     H5R      HAL2     0.900000E-01   1.00800           0
     10386 MEMB     79       POPC     H5S      HAL2     0.900000E-01   1.00800           0
     10387 MEMB     79       POPC     C26      CTL2    -0.180000       12.0110           0
     10388 MEMB     79       POPC     H6R      HAL2     0.900000E-01   1.00800           0
     10389 MEMB     79       POPC     H6S      HAL2     0.900000E-01   1.00800           0
     10390 MEMB     79       POPC     C27      CTL2    -0.180000       12.0110           0
     10391 MEMB     79       POPC     H7R      HAL2     0.900000E-01   1.00800           0
     10392 MEMB     79       POPC     H7S      HAL2     0.900000E-01   1.00800           0
     10393 MEMB     79       POPC     C28      CTL2    -0.180000       12.0110           0
     10394 MEMB     79       POPC     H8R      HAL2     0.900000E-01   1.00800           0
     10395 MEMB     79       POPC     H8S      HAL2     0.900000E-01   1.00800           0
     10396 MEMB     79       POPC     C29      CEL1    -0.150000       12.0110           0
     10397 MEMB     79       POPC     H91      HEL1     0.150000       1.00800           0
     10398 MEMB     79       POPC     C210     CEL1    -0.150000       12.0110           0
     10399 MEMB     79       POPC     H101     HEL1     0.150000       1.00800           0
     10400 MEMB     79       POPC     C211     CTL2    -0.180000       12.0110           0
     10401 MEMB     79       POPC     H11R     HAL2     0.900000E-01   1.00800           0
     10402 MEMB     79       POPC     H11S     HAL2     0.900000E-01   1.00800           0
     10403 MEMB     79       POPC     C212     CTL2    -0.180000       12.0110           0
     10404 MEMB     79       POPC     H12R     HAL2     0.900000E-01   1.00800           0
     10405 MEMB     79       POPC     H12S     HAL2     0.900000E-01   1.00800           0
     10406 MEMB     79       POPC     C213     CTL2    -0.180000       12.0110           0
     10407 MEMB     79       POPC     H13R     HAL2     0.900000E-01   1.00800           0
     10408 MEMB     79       POPC     H13S     HAL2     0.900000E-01   1.00800           0
     10409 MEMB     79       POPC     C214     CTL2    -0.180000       12.0110           0
     10410 MEMB     79       POPC     H14R     HAL2     0.900000E-01   1.00800           0
     10411 MEMB     79       POPC     H14S     HAL2     0.900000E-01   1.00800           0
     10412 MEMB     79       POPC     C215     CTL2    -0.180000       12.0110           0
     10413 MEMB     79       POPC     H15R     HAL2     0.900000E-01   1.00800           0
     10414 MEMB     79       POPC     H15S     HAL2     0.900000E-01   1.00800           0
     10415 MEMB     79       POPC     C216     CTL2    -0.180000       12.0110           0
     10416 MEMB     79       POPC     H16R     HAL2     0.900000E-01   1.00800           0
     10417 MEMB     79       POPC     H16S     HAL2     0.900000E-01   1.00800           0
     10418 MEMB     79       POPC     C217     CTL2    -0.180000       12.0110           0
     10419 MEMB     79       POPC     H17R     HAL2     0.900000E-01   1.00800           0
     10420 MEMB     79       POPC     H17S     HAL2     0.900000E-01   1.00800           0
     10421 MEMB     79       POPC     C218     CTL3    -0.270000       12.0110           0
     10422 MEMB     79       POPC     H18R     HAL3     0.900000E-01   1.00800           0
     10423 MEMB     79       POPC     H18S     HAL3     0.900000E-01   1.00800           0
     10424 MEMB     79       POPC     H18T     HAL3     0.900000E-01   1.00800           0
     10425 MEMB     79       POPC     C33      CTL2    -0.180000       12.0110           0
     10426 MEMB     79       POPC     H3X      HAL2     0.900000E-01   1.00800           0
     10427 MEMB     79       POPC     H3Y      HAL2     0.900000E-01   1.00800           0
     10428 MEMB     79       POPC     C34      CTL2    -0.180000       12.0110           0
     10429 MEMB     79       POPC     H4X      HAL2     0.900000E-01   1.00800           0
     10430 MEMB     79       POPC     H4Y      HAL2     0.900000E-01   1.00800           0
     10431 MEMB     79       POPC     C35      CTL2    -0.180000       12.0110           0
     10432 MEMB     79       POPC     H5X      HAL2     0.900000E-01   1.00800           0
     10433 MEMB     79       POPC     H5Y      HAL2     0.900000E-01   1.00800           0
     10434 MEMB     79       POPC     C36      CTL2    -0.180000       12.0110           0
     10435 MEMB     79       POPC     H6X      HAL2     0.900000E-01   1.00800           0
     10436 MEMB     79       POPC     H6Y      HAL2     0.900000E-01   1.00800           0
     10437 MEMB     79       POPC     C37      CTL2    -0.180000       12.0110           0
     10438 MEMB     79       POPC     H7X      HAL2     0.900000E-01   1.00800           0
     10439 MEMB     79       POPC     H7Y      HAL2     0.900000E-01   1.00800           0
     10440 MEMB     79       POPC     C38      CTL2    -0.180000       12.0110           0
     10441 MEMB     79       POPC     H8X      HAL2     0.900000E-01   1.00800           0
     10442 MEMB     79       POPC     H8Y      HAL2     0.900000E-01   1.00800           0
     10443 MEMB     79       POPC     C39      CTL2    -0.180000       12.0110           0
     10444 MEMB     79       POPC     H9X      HAL2     0.900000E-01   1.00800           0
     10445 MEMB     79       POPC     H9Y      HAL2     0.900000E-01   1.00800           0
     10446 MEMB     79       POPC     C310     CTL2    -0.180000       12.0110           0
     10447 MEMB     79       POPC     H10X     HAL2     0.900000E-01   1.00800           0
     10448 MEMB     79       POPC     H10Y     HAL2     0.900000E-01   1.00800           0
     10449 MEMB     79       POPC     C311     CTL2    -0.180000       12.0110           0
     10450 MEMB     79       POPC     H11X     HAL2     0.900000E-01   1.00800           0
     10451 MEMB     79       POPC     H11Y     HAL2     0.900000E-01   1.00800           0
     10452 MEMB     79       POPC     C312     CTL2    -0.180000       12.0110           0
     10453 MEMB     79       POPC     H12X     HAL2     0.900000E-01   1.00800           0
     10454 MEMB     79       POPC     H12Y     HAL2     0.900000E-01   1.00800           0
     10455 MEMB     79       POPC     C313     CTL2    -0.180000       12.0110           0
     10456 MEMB     79       POPC     H13X     HAL2     0.900000E-01   1.00800           0
     10457 MEMB     79       POPC     H13Y     HAL2     0.900000E-01   1.00800           0
     10458 MEMB     79       POPC     C314     CTL2    -0.180000       12.0110           0
     10459 MEMB     79       POPC     H14X     HAL2     0.900000E-01   1.00800           0
     10460 MEMB     79       POPC     H14Y     HAL2     0.900000E-01   1.00800           0
     10461 MEMB     79       POPC     C315     CTL2    -0.180000       12.0110           0
     10462 MEMB     79       POPC     H15X     HAL2     0.900000E-01   1.00800           0
     10463 MEMB     79       POPC     H15Y     HAL2     0.900000E-01   1.00800           0
     10464 MEMB     79       POPC     C316     CTL3    -0.270000       12.0110           0
     10465 MEMB     79       POPC     H16X     HAL3     0.900000E-01   1.00800           0
     10466 MEMB     79       POPC     H16Y     HAL3     0.900000E-01   1.00800           0
     10467 MEMB     79       POPC     H16Z     HAL3     0.900000E-01   1.00800           0
     10468 MEMB     80       POPS     N        NH3L    -0.300000       14.0070           0
     10469 MEMB     80       POPS     HN1      HCL      0.330000       1.00800           0
     10470 MEMB     80       POPS     HN2      HCL      0.330000       1.00800           0
     10471 MEMB     80       POPS     HN3      HCL      0.330000       1.00800           0
     10472 MEMB     80       POPS     C12      CTL1     0.210000       12.0110           0
     10473 MEMB     80       POPS     H12A     HBL      0.100000       1.00800           0
     10474 MEMB     80       POPS     C13      CCL      0.340000       12.0110           0
     10475 MEMB     80       POPS     O13A     OCL     -0.670000       15.9994           0
     10476 MEMB     80       POPS     O13B     OCL     -0.670000       15.9994           0
     10477 MEMB     80       POPS     C11      CTL2    -0.800000E-01   12.0110           0
     10478 MEMB     80       POPS     H11A     HAL2     0.900000E-01   1.00800           0
     10479 MEMB     80       POPS     H11B     HAL2     0.900000E-01   1.00800           0
     10480 MEMB     80       POPS     P        PL        1.50000       30.9740           0
     10481 MEMB     80       POPS     O13      O2L     -0.780000       15.9994           0
     10482 MEMB     80       POPS     O14      O2L     -0.780000       15.9994           0
     10483 MEMB     80       POPS     O12      OSLP    -0.570000       15.9994           0
     10484 MEMB     80       POPS     O11      OSLP    -0.570000       15.9994           0
     10485 MEMB     80       POPS     C1       CTL2    -0.800000E-01   12.0110           0
     10486 MEMB     80       POPS     HA       HAL2     0.900000E-01   1.00800           0
     10487 MEMB     80       POPS     HB       HAL2     0.900000E-01   1.00800           0
     10488 MEMB     80       POPS     C2       CTL1     0.170000       12.0110           0
     10489 MEMB     80       POPS     HS       HAL1     0.900000E-01   1.00800           0
     10490 MEMB     80       POPS     O21      OSL     -0.490000       15.9994           0
     10491 MEMB     80       POPS     C21      CL       0.900000       12.0110           0
     10492 MEMB     80       POPS     O22      OBL     -0.630000       15.9994           0
     10493 MEMB     80       POPS     C22      CTL2    -0.220000       12.0110           0
     10494 MEMB     80       POPS     H2R      HAL2     0.900000E-01   1.00800           0
     10495 MEMB     80       POPS     H2S      HAL2     0.900000E-01   1.00800           0
     10496 MEMB     80       POPS     C3       CTL2     0.800000E-01   12.0110           0
     10497 MEMB     80       POPS     HX       HAL2     0.900000E-01   1.00800           0
     10498 MEMB     80       POPS     HY       HAL2     0.900000E-01   1.00800           0
     10499 MEMB     80       POPS     O31      OSL     -0.490000       15.9994           0
     10500 MEMB     80       POPS     C31      CL       0.900000       12.0110           0
     10501 MEMB     80       POPS     O32      OBL     -0.630000       15.9994           0
     10502 MEMB     80       POPS     C32      CTL2    -0.220000       12.0110           0
     10503 MEMB     80       POPS     H2X      HAL2     0.900000E-01   1.00800           0
     10504 MEMB     80       POPS     H2Y      HAL2     0.900000E-01   1.00800           0
     10505 MEMB     80       POPS     C23      CTL2    -0.180000       12.0110           0
     10506 MEMB     80       POPS     H3R      HAL2     0.900000E-01   1.00800           0
     10507 MEMB     80       POPS     H3S      HAL2     0.900000E-01   1.00800           0
     10508 MEMB     80       POPS     C24      CTL2    -0.180000       12.0110           0
     10509 MEMB     80       POPS     H4R      HAL2     0.900000E-01   1.00800           0
     10510 MEMB     80       POPS     H4S      HAL2     0.900000E-01   1.00800           0
     10511 MEMB     80       POPS     C25      CTL2    -0.180000       12.0110           0
     10512 MEMB     80       POPS     H5R      HAL2     0.900000E-01   1.00800           0
     10513 MEMB     80       POPS     H5S      HAL2     0.900000E-01   1.00800           0
     10514 MEMB     80       POPS     C26      CTL2    -0.180000       12.0110           0
     10515 MEMB     80       POPS     H6R      HAL2     0.900000E-01   1.00800           0
     10516 MEMB     80       POPS     H6S      HAL2     0.900000E-01   1.00800           0
     10517 MEMB     80       POPS     C27      CTL2    -0.180000       12.0110           0
     10518 MEMB     80       POPS     H7R      HAL2     0.900000E-01   1.00800           0
     10519 MEMB     80       POPS     H7S      HAL2     0.900000E-01   1.00800           0
     10520 MEMB     80       POPS     C28      CTL2    -0.180000       12.0110           0
     10521 MEMB     80       POPS     H8R      HAL2     0.900000E-01   1.00800           0
     10522 MEMB     80       POPS     H8S      HAL2     0.900000E-01   1.00800           0
     10523 MEMB     80       POPS     C29      CEL1    -0.150000       12.0110           0
     10524 MEMB     80       POPS     H91      HEL1     0.150000       1.00800           0
     10525 MEMB     80       POPS     C210     CEL1    -0.150000       12.0110           0
     10526 MEMB     80       POPS     H101     HEL1     0.150000       1.00800           0
     10527 MEMB     80       POPS     C211     CTL2    -0.180000       12.0110           0
     10528 MEMB     80       POPS     H11R     HAL2     0.900000E-01   1.00800           0
     10529 MEMB     80       POPS     H11S     HAL2     0.900000E-01   1.00800           0
     10530 MEMB     80       POPS     C212     CTL2    -0.180000       12.0110           0
     10531 MEMB     80       POPS     H12R     HAL2     0.900000E-01   1.00800           0
     10532 MEMB     80       POPS     H12S     HAL2     0.900000E-01   1.00800           0
     10533 MEMB     80       POPS     C213     CTL2    -0.180000       12.0110           0
     10534 MEMB     80       POPS     H13R     HAL2     0.900000E-01   1.00800           0
     10535 MEMB     80       POPS     H13S     HAL2     0.900000E-01   1.00800           0
     10536 MEMB     80       POPS     C214     CTL2    -0.180000       12.0110           0
     10537 MEMB     80       POPS     H14R     HAL2     0.900000E-01   1.00800           0
     10538 MEMB     80       POPS     H14S     HAL2     0.900000E-01   1.00800           0
     10539 MEMB     80       POPS     C215     CTL2    -0.180000       12.0110           0
     10540 MEMB     80       POPS     H15R     HAL2     0.900000E-01   1.00800           0
     10541 MEMB     80       POPS     H15S     HAL2     0.900000E-01   1.00800           0
     10542 MEMB     80       POPS     C216     CTL2    -0.180000       12.0110           0
     10543 MEMB     80       POPS     H16R     HAL2     0.900000E-01   1.00800           0
     10544 MEMB     80       POPS     H16S     HAL2     0.900000E-01   1.00800           0
     10545 MEMB     80       POPS     C217     CTL2    -0.180000       12.0110           0
     10546 MEMB     80       POPS     H17R     HAL2     0.900000E-01   1.00800           0
     10547 MEMB     80       POPS     H17S     HAL2     0.900000E-01   1.00800           0
     10548 MEMB     80       POPS     C218     CTL3    -0.270000       12.0110           0
     10549 MEMB     80       POPS     H18R     HAL3     0.900000E-01   1.00800           0
     10550 MEMB     80       POPS     H18S     HAL3     0.900000E-01   1.00800           0
     10551 MEMB     80       POPS     H18T     HAL3     0.900000E-01   1.00800           0
     10552 MEMB     80       POPS     C33      CTL2    -0.180000       12.0110           0
     10553 MEMB     80       POPS     H3X      HAL2     0.900000E-01   1.00800           0
     10554 MEMB     80       POPS     H3Y      HAL2     0.900000E-01   1.00800           0
     10555 MEMB     80       POPS     C34      CTL2    -0.180000       12.0110           0
     10556 MEMB     80       POPS     H4X      HAL2     0.900000E-01   1.00800           0
     10557 MEMB     80       POPS     H4Y      HAL2     0.900000E-01   1.00800           0
     10558 MEMB     80       POPS     C35      CTL2    -0.180000       12.0110           0
     10559 MEMB     80       POPS     H5X      HAL2     0.900000E-01   1.00800           0
     10560 MEMB     80       POPS     H5Y      HAL2     0.900000E-01   1.00800           0
     10561 MEMB     80       POPS     C36      CTL2    -0.180000       12.0110           0
     10562 MEMB     80       POPS     H6X      HAL2     0.900000E-01   1.00800           0
     10563 MEMB     80       POPS     H6Y      HAL2     0.900000E-01   1.00800           0
     10564 MEMB     80       POPS     C37      CTL2    -0.180000       12.0110           0
     10565 MEMB     80       POPS     H7X      HAL2     0.900000E-01   1.00800           0
     10566 MEMB     80       POPS     H7Y      HAL2     0.900000E-01   1.00800           0
     10567 MEMB     80       POPS     C38      CTL2    -0.180000       12.0110           0
     10568 MEMB     80       POPS     H8X      HAL2     0.900000E-01   1.00800           0
     10569 MEMB     80       POPS     H8Y      HAL2     0.900000E-01   1.00800           0
     10570 MEMB     80       POPS     C39      CTL2    -0.180000       12.0110           0
     10571 MEMB     80       POPS     H9X      HAL2     0.900000E-01   1.00800           0
     10572 MEMB     80       POPS     H9Y      HAL2     0.900000E-01   1.00800           0
     10573 MEMB     80       POPS     C310     CTL2    -0.180000       12.0110           0
     10574 MEMB     80       POPS     H10X     HAL2     0.900000E-01   1.00800           0
     10575 MEMB     80       POPS     H10Y     HAL2     0.900000E-01   1.00800           0
     10576 MEMB     80       POPS     C311     CTL2    -0.180000       12.0110           0
     10577 MEMB     80       POPS     H11X     HAL2     0.900000E-01   1.00800           0
     10578 MEMB     80       POPS     H11Y     HAL2     0.900000E-01   1.00800           0
     10579 MEMB     80       POPS     C312     CTL2    -0.180000       12.0110           0
     10580 MEMB     80       POPS     H12X     HAL2     0.900000E-01   1.00800           0
     10581 MEMB     80       POPS     H12Y     HAL2     0.900000E-01   1.00800           0
     10582 MEMB     80       POPS     C313     CTL2    -0.180000       12.0110           0
     10583 MEMB     80       POPS     H13X     HAL2     0.900000E-01   1.00800           0
     10584 MEMB     80       POPS     H13Y     HAL2     0.900000E-01   1.00800           0
     10585 MEMB     80       POPS     C314     CTL2    -0.180000       12.0110           0
     10586 MEMB     80       POPS     H14X     HAL2     0.900000E-01   1.00800           0
     10587 MEMB     80       POPS     H14Y     HAL2     0.900000E-01   1.00800           0
     10588 MEMB     80       POPS     C315     CTL2    -0.180000       12.0110           0
     10589 MEMB     80       POPS     H15X     HAL2     0.900000E-01   1.00800           0
     10590 MEMB     80       POPS     H15Y     HAL2     0.900000E-01   1.00800           0
     10591 MEMB     80       POPS     C316     CTL3    -0.270000       12.0110           0
     10592 MEMB     80       POPS     H16X     HAL3     0.900000E-01   1.00800           0
     10593 MEMB     80       POPS     H16Y     HAL3     0.900000E-01   1.00800           0
     10594 MEMB     80       POPS     H16Z     HAL3     0.900000E-01   1.00800           0
     10595 MEMB     81       POPS     N        NH3L    -0.300000       14.0070           0
     10596 MEMB     81       POPS     HN1      HCL      0.330000       1.00800           0
     10597 MEMB     81       POPS     HN2      HCL      0.330000       1.00800           0
     10598 MEMB     81       POPS     HN3      HCL      0.330000       1.00800           0
     10599 MEMB     81       POPS     C12      CTL1     0.210000       12.0110           0
     10600 MEMB     81       POPS     H12A     HBL      0.100000       1.00800           0
     10601 MEMB     81       POPS     C13      CCL      0.340000       12.0110           0
     10602 MEMB     81       POPS     O13A     OCL     -0.670000       15.9994           0
     10603 MEMB     81       POPS     O13B     OCL     -0.670000       15.9994           0
     10604 MEMB     81       POPS     C11      CTL2    -0.800000E-01   12.0110           0
     10605 MEMB     81       POPS     H11A     HAL2     0.900000E-01   1.00800           0
     10606 MEMB     81       POPS     H11B     HAL2     0.900000E-01   1.00800           0
     10607 MEMB     81       POPS     P        PL        1.50000       30.9740           0
     10608 MEMB     81       POPS     O13      O2L     -0.780000       15.9994           0
     10609 MEMB     81       POPS     O14      O2L     -0.780000       15.9994           0
     10610 MEMB     81       POPS     O12      OSLP    -0.570000       15.9994           0
     10611 MEMB     81       POPS     O11      OSLP    -0.570000       15.9994           0
     10612 MEMB     81       POPS     C1       CTL2    -0.800000E-01   12.0110           0
     10613 MEMB     81       POPS     HA       HAL2     0.900000E-01   1.00800           0
     10614 MEMB     81       POPS     HB       HAL2     0.900000E-01   1.00800           0
     10615 MEMB     81       POPS     C2       CTL1     0.170000       12.0110           0
     10616 MEMB     81       POPS     HS       HAL1     0.900000E-01   1.00800           0
     10617 MEMB     81       POPS     O21      OSL     -0.490000       15.9994           0
     10618 MEMB     81       POPS     C21      CL       0.900000       12.0110           0
     10619 MEMB     81       POPS     O22      OBL     -0.630000       15.9994           0
     10620 MEMB     81       POPS     C22      CTL2    -0.220000       12.0110           0
     10621 MEMB     81       POPS     H2R      HAL2     0.900000E-01   1.00800           0
     10622 MEMB     81       POPS     H2S      HAL2     0.900000E-01   1.00800           0
     10623 MEMB     81       POPS     C3       CTL2     0.800000E-01   12.0110           0
     10624 MEMB     81       POPS     HX       HAL2     0.900000E-01   1.00800           0
     10625 MEMB     81       POPS     HY       HAL2     0.900000E-01   1.00800           0
     10626 MEMB     81       POPS     O31      OSL     -0.490000       15.9994           0
     10627 MEMB     81       POPS     C31      CL       0.900000       12.0110           0
     10628 MEMB     81       POPS     O32      OBL     -0.630000       15.9994           0
     10629 MEMB     81       POPS     C32      CTL2    -0.220000       12.0110           0
     10630 MEMB     81       POPS     H2X      HAL2     0.900000E-01   1.00800           0
     10631 MEMB     81       POPS     H2Y      HAL2     0.900000E-01   1.00800           0
     10632 MEMB     81       POPS     C23      CTL2    -0.180000       12.0110           0
     10633 MEMB     81       POPS     H3R      HAL2     0.900000E-01   1.00800           0
     10634 MEMB     81       POPS     H3S      HAL2     0.900000E-01   1.00800           0
     10635 MEMB     81       POPS     C24      CTL2    -0.180000       12.0110           0
     10636 MEMB     81       POPS     H4R      HAL2     0.900000E-01   1.00800           0
     10637 MEMB     81       POPS     H4S      HAL2     0.900000E-01   1.00800           0
     10638 MEMB     81       POPS     C25      CTL2    -0.180000       12.0110           0
     10639 MEMB     81       POPS     H5R      HAL2     0.900000E-01   1.00800           0
     10640 MEMB     81       POPS     H5S      HAL2     0.900000E-01   1.00800           0
     10641 MEMB     81       POPS     C26      CTL2    -0.180000       12.0110           0
     10642 MEMB     81       POPS     H6R      HAL2     0.900000E-01   1.00800           0
     10643 MEMB     81       POPS     H6S      HAL2     0.900000E-01   1.00800           0
     10644 MEMB     81       POPS     C27      CTL2    -0.180000       12.0110           0
     10645 MEMB     81       POPS     H7R      HAL2     0.900000E-01   1.00800           0
     10646 MEMB     81       POPS     H7S      HAL2     0.900000E-01   1.00800           0
     10647 MEMB     81       POPS     C28      CTL2    -0.180000       12.0110           0
     10648 MEMB     81       POPS     H8R      HAL2     0.900000E-01   1.00800           0
     10649 MEMB     81       POPS     H8S      HAL2     0.900000E-01   1.00800           0
     10650 MEMB     81       POPS     C29      CEL1    -0.150000       12.0110           0
     10651 MEMB     81       POPS     H91      HEL1     0.150000       1.00800           0
     10652 MEMB     81       POPS     C210     CEL1    -0.150000       12.0110           0
     10653 MEMB     81       POPS     H101     HEL1     0.150000       1.00800           0
     10654 MEMB     81       POPS     C211     CTL2    -0.180000       12.0110           0
     10655 MEMB     81       POPS     H11R     HAL2     0.900000E-01   1.00800           0
     10656 MEMB     81       POPS     H11S     HAL2     0.900000E-01   1.00800           0
     10657 MEMB     81       POPS     C212     CTL2    -0.180000       12.0110           0
     10658 MEMB     81       POPS     H12R     HAL2     0.900000E-01   1.00800           0
     10659 MEMB     81       POPS     H12S     HAL2     0.900000E-01   1.00800           0
     10660 MEMB     81       POPS     C213     CTL2    -0.180000       12.0110           0
     10661 MEMB     81       POPS     H13R     HAL2     0.900000E-01   1.00800           0
     10662 MEMB     81       POPS     H13S     HAL2     0.900000E-01   1.00800           0
     10663 MEMB     81       POPS     C214     CTL2    -0.180000       12.0110           0
     10664 MEMB     81       POPS     H14R     HAL2     0.900000E-01   1.00800           0
     10665 MEMB     81       POPS     H14S     HAL2     0.900000E-01   1.00800           0
     10666 MEMB     81       POPS     C215     CTL2    -0.180000       12.0110           0
     10667 MEMB     81       POPS     H15R     HAL2     0.900000E-01   1.00800           0
     10668 MEMB     81       POPS     H15S     HAL2     0.900000E-01   1.00800           0
     10669 MEMB     81       POPS     C216     CTL2    -0.180000       12.0110           0
     10670 MEMB     81       POPS     H16R     HAL2     0.900000E-01   1.00800           0
     10671 MEMB     81       POPS     H16S     HAL2     0.900000E-01   1.00800           0
     10672 MEMB     81       POPS     C217     CTL2    -0.180000       12.0110           0
     10673 MEMB     81       POPS     H17R     HAL2     0.900000E-01   1.00800           0
     10674 MEMB     81       POPS     H17S     HAL2     0.900000E-01   1.00800           0
     10675 MEMB     81       POPS     C218     CTL3    -0.270000       12.0110           0
     10676 MEMB     81       POPS     H18R     HAL3     0.900000E-01   1.00800           0
     10677 MEMB     81       POPS     H18S     HAL3     0.900000E-01   1.00800           0
     10678 MEMB     81       POPS     H18T     HAL3     0.900000E-01   1.00800           0
     10679 MEMB     81       POPS     C33      CTL2    -0.180000       12.0110           0
     10680 MEMB     81       POPS     H3X      HAL2     0.900000E-01   1.00800           0
     10681 MEMB     81       POPS     H3Y      HAL2     0.900000E-01   1.00800           0
     10682 MEMB     81       POPS     C34      CTL2    -0.180000       12.0110           0
     10683 MEMB     81       POPS     H4X      HAL2     0.900000E-01   1.00800           0
     10684 MEMB     81       POPS     H4Y      HAL2     0.900000E-01   1.00800           0
     10685 MEMB     81       POPS     C35      CTL2    -0.180000       12.0110           0
     10686 MEMB     81       POPS     H5X      HAL2     0.900000E-01   1.00800           0
     10687 MEMB     81       POPS     H5Y      HAL2     0.900000E-01   1.00800           0
     10688 MEMB     81       POPS     C36      CTL2    -0.180000       12.0110           0
     10689 MEMB     81       POPS     H6X      HAL2     0.900000E-01   1.00800           0
     10690 MEMB     81       POPS     H6Y      HAL2     0.900000E-01   1.00800           0
     10691 MEMB     81       POPS     C37      CTL2    -0.180000       12.0110           0
     10692 MEMB     81       POPS     H7X      HAL2     0.900000E-01   1.00800           0
     10693 MEMB     81       POPS     H7Y      HAL2     0.900000E-01   1.00800           0
     10694 MEMB     81       POPS     C38      CTL2    -0.180000       12.0110           0
     10695 MEMB     81       POPS     H8X      HAL2     0.900000E-01   1.00800           0
     10696 MEMB     81       POPS     H8Y      HAL2     0.900000E-01   1.00800           0
     10697 MEMB     81       POPS     C39      CTL2    -0.180000       12.0110           0
     10698 MEMB     81       POPS     H9X      HAL2     0.900000E-01   1.00800           0
     10699 MEMB     81       POPS     H9Y      HAL2     0.900000E-01   1.00800           0
     10700 MEMB     81       POPS     C310     CTL2    -0.180000       12.0110           0
     10701 MEMB     81       POPS     H10X     HAL2     0.900000E-01   1.00800           0
     10702 MEMB     81       POPS     H10Y     HAL2     0.900000E-01   1.00800           0
     10703 MEMB     81       POPS     C311     CTL2    -0.180000       12.0110           0
     10704 MEMB     81       POPS     H11X     HAL2     0.900000E-01   1.00800           0
     10705 MEMB     81       POPS     H11Y     HAL2     0.900000E-01   1.00800           0
     10706 MEMB     81       POPS     C312     CTL2    -0.180000       12.0110           0
     10707 MEMB     81       POPS     H12X     HAL2     0.900000E-01   1.00800           0
     10708 MEMB     81       POPS     H12Y     HAL2     0.900000E-01   1.00800           0
     10709 MEMB     81       POPS     C313     CTL2    -0.180000       12.0110           0
     10710 MEMB     81       POPS     H13X     HAL2     0.900000E-01   1.00800           0
     10711 MEMB     81       POPS     H13Y     HAL2     0.900000E-01   1.00800           0
     10712 MEMB     81       POPS     C314     CTL2    -0.180000       12.0110           0
     10713 MEMB     81       POPS     H14X     HAL2     0.900000E-01   1.00800           0
     10714 MEMB     81       POPS     H14Y     HAL2     0.900000E-01   1.00800           0
     10715 MEMB     81       POPS     C315     CTL2    -0.180000       12.0110           0
     10716 MEMB     81       POPS     H15X     HAL2     0.900000E-01   1.00800           0
     10717 MEMB     81       POPS     H15Y     HAL2     0.900000E-01   1.00800           0
     10718 MEMB     81       POPS     C316     CTL3    -0.270000       12.0110           0
     10719 MEMB     81       POPS     H16X     HAL3     0.900000E-01   1.00800           0
     10720 MEMB     81       POPS     H16Y     HAL3     0.900000E-01   1.00800           0
     10721 MEMB     81       POPS     H16Z     HAL3     0.900000E-01   1.00800           0
     10722 MEMB     82       POPC     N        NTL     -0.600000       14.0070           0
     10723 MEMB     82       POPC     C12      CTL2    -0.100000       12.0110           0
     10724 MEMB     82       POPC     H12A     HL       0.250000       1.00800           0
     10725 MEMB     82       POPC     H12B     HL       0.250000       1.00800           0
     10726 MEMB     82       POPC     C13      CTL5    -0.350000       12.0110           0
     10727 MEMB     82       POPC     H13A     HL       0.250000       1.00800           0
     10728 MEMB     82       POPC     H13B     HL       0.250000       1.00800           0
     10729 MEMB     82       POPC     H13C     HL       0.250000       1.00800           0
     10730 MEMB     82       POPC     C14      CTL5    -0.350000       12.0110           0
     10731 MEMB     82       POPC     H14A     HL       0.250000       1.00800           0
     10732 MEMB     82       POPC     H14B     HL       0.250000       1.00800           0
     10733 MEMB     82       POPC     H14C     HL       0.250000       1.00800           0
     10734 MEMB     82       POPC     C15      CTL5    -0.350000       12.0110           0
     10735 MEMB     82       POPC     H15A     HL       0.250000       1.00800           0
     10736 MEMB     82       POPC     H15B     HL       0.250000       1.00800           0
     10737 MEMB     82       POPC     H15C     HL       0.250000       1.00800           0
     10738 MEMB     82       POPC     C11      CTL2    -0.800000E-01   12.0110           0
     10739 MEMB     82       POPC     H11A     HAL2     0.900000E-01   1.00800           0
     10740 MEMB     82       POPC     H11B     HAL2     0.900000E-01   1.00800           0
     10741 MEMB     82       POPC     P        PL        1.50000       30.9740           0
     10742 MEMB     82       POPC     O13      O2L     -0.780000       15.9994           0
     10743 MEMB     82       POPC     O14      O2L     -0.780000       15.9994           0
     10744 MEMB     82       POPC     O12      OSLP    -0.570000       15.9994           0
     10745 MEMB     82       POPC     O11      OSLP    -0.570000       15.9994           0
     10746 MEMB     82       POPC     C1       CTL2    -0.800000E-01   12.0110           0
     10747 MEMB     82       POPC     HA       HAL2     0.900000E-01   1.00800           0
     10748 MEMB     82       POPC     HB       HAL2     0.900000E-01   1.00800           0
     10749 MEMB     82       POPC     C2       CTL1     0.170000       12.0110           0
     10750 MEMB     82       POPC     HS       HAL1     0.900000E-01   1.00800           0
     10751 MEMB     82       POPC     O21      OSL     -0.490000       15.9994           0
     10752 MEMB     82       POPC     C21      CL       0.900000       12.0110           0
     10753 MEMB     82       POPC     O22      OBL     -0.630000       15.9994           0
     10754 MEMB     82       POPC     C22      CTL2    -0.220000       12.0110           0
     10755 MEMB     82       POPC     H2R      HAL2     0.900000E-01   1.00800           0
     10756 MEMB     82       POPC     H2S      HAL2     0.900000E-01   1.00800           0
     10757 MEMB     82       POPC     C3       CTL2     0.800000E-01   12.0110           0
     10758 MEMB     82       POPC     HX       HAL2     0.900000E-01   1.00800           0
     10759 MEMB     82       POPC     HY       HAL2     0.900000E-01   1.00800           0
     10760 MEMB     82       POPC     O31      OSL     -0.490000       15.9994           0
     10761 MEMB     82       POPC     C31      CL       0.900000       12.0110           0
     10762 MEMB     82       POPC     O32      OBL     -0.630000       15.9994           0
     10763 MEMB     82       POPC     C32      CTL2    -0.220000       12.0110           0
     10764 MEMB     82       POPC     H2X      HAL2     0.900000E-01   1.00800           0
     10765 MEMB     82       POPC     H2Y      HAL2     0.900000E-01   1.00800           0
     10766 MEMB     82       POPC     C23      CTL2    -0.180000       12.0110           0
     10767 MEMB     82       POPC     H3R      HAL2     0.900000E-01   1.00800           0
     10768 MEMB     82       POPC     H3S      HAL2     0.900000E-01   1.00800           0
     10769 MEMB     82       POPC     C24      CTL2    -0.180000       12.0110           0
     10770 MEMB     82       POPC     H4R      HAL2     0.900000E-01   1.00800           0
     10771 MEMB     82       POPC     H4S      HAL2     0.900000E-01   1.00800           0
     10772 MEMB     82       POPC     C25      CTL2    -0.180000       12.0110           0
     10773 MEMB     82       POPC     H5R      HAL2     0.900000E-01   1.00800           0
     10774 MEMB     82       POPC     H5S      HAL2     0.900000E-01   1.00800           0
     10775 MEMB     82       POPC     C26      CTL2    -0.180000       12.0110           0
     10776 MEMB     82       POPC     H6R      HAL2     0.900000E-01   1.00800           0
     10777 MEMB     82       POPC     H6S      HAL2     0.900000E-01   1.00800           0
     10778 MEMB     82       POPC     C27      CTL2    -0.180000       12.0110           0
     10779 MEMB     82       POPC     H7R      HAL2     0.900000E-01   1.00800           0
     10780 MEMB     82       POPC     H7S      HAL2     0.900000E-01   1.00800           0
     10781 MEMB     82       POPC     C28      CTL2    -0.180000       12.0110           0
     10782 MEMB     82       POPC     H8R      HAL2     0.900000E-01   1.00800           0
     10783 MEMB     82       POPC     H8S      HAL2     0.900000E-01   1.00800           0
     10784 MEMB     82       POPC     C29      CEL1    -0.150000       12.0110           0
     10785 MEMB     82       POPC     H91      HEL1     0.150000       1.00800           0
     10786 MEMB     82       POPC     C210     CEL1    -0.150000       12.0110           0
     10787 MEMB     82       POPC     H101     HEL1     0.150000       1.00800           0
     10788 MEMB     82       POPC     C211     CTL2    -0.180000       12.0110           0
     10789 MEMB     82       POPC     H11R     HAL2     0.900000E-01   1.00800           0
     10790 MEMB     82       POPC     H11S     HAL2     0.900000E-01   1.00800           0
     10791 MEMB     82       POPC     C212     CTL2    -0.180000       12.0110           0
     10792 MEMB     82       POPC     H12R     HAL2     0.900000E-01   1.00800           0
     10793 MEMB     82       POPC     H12S     HAL2     0.900000E-01   1.00800           0
     10794 MEMB     82       POPC     C213     CTL2    -0.180000       12.0110           0
     10795 MEMB     82       POPC     H13R     HAL2     0.900000E-01   1.00800           0
     10796 MEMB     82       POPC     H13S     HAL2     0.900000E-01   1.00800           0
     10797 MEMB     82       POPC     C214     CTL2    -0.180000       12.0110           0
     10798 MEMB     82       POPC     H14R     HAL2     0.900000E-01   1.00800           0
     10799 MEMB     82       POPC     H14S     HAL2     0.900000E-01   1.00800           0
     10800 MEMB     82       POPC     C215     CTL2    -0.180000       12.0110           0
     10801 MEMB     82       POPC     H15R     HAL2     0.900000E-01   1.00800           0
     10802 MEMB     82       POPC     H15S     HAL2     0.900000E-01   1.00800           0
     10803 MEMB     82       POPC     C216     CTL2    -0.180000       12.0110           0
     10804 MEMB     82       POPC     H16R     HAL2     0.900000E-01   1.00800           0
     10805 MEMB     82       POPC     H16S     HAL2     0.900000E-01   1.00800           0
     10806 MEMB     82       POPC     C217     CTL2    -0.180000       12.0110           0
     10807 MEMB     82       POPC     H17R     HAL2     0.900000E-01   1.00800           0
     10808 MEMB     82       POPC     H17S     HAL2     0.900000E-01   1.00800           0
     10809 MEMB     82       POPC     C218     CTL3    -0.270000       12.0110           0
     10810 MEMB     82       POPC     H18R     HAL3     0.900000E-01   1.00800           0
     10811 MEMB     82       POPC     H18S     HAL3     0.900000E-01   1.00800           0
     10812 MEMB     82       POPC     H18T     HAL3     0.900000E-01   1.00800           0
     10813 MEMB     82       POPC     C33      CTL2    -0.180000       12.0110           0
     10814 MEMB     82       POPC     H3X      HAL2     0.900000E-01   1.00800           0
     10815 MEMB     82       POPC     H3Y      HAL2     0.900000E-01   1.00800           0
     10816 MEMB     82       POPC     C34      CTL2    -0.180000       12.0110           0
     10817 MEMB     82       POPC     H4X      HAL2     0.900000E-01   1.00800           0
     10818 MEMB     82       POPC     H4Y      HAL2     0.900000E-01   1.00800           0
     10819 MEMB     82       POPC     C35      CTL2    -0.180000       12.0110           0
     10820 MEMB     82       POPC     H5X      HAL2     0.900000E-01   1.00800           0
     10821 MEMB     82       POPC     H5Y      HAL2     0.900000E-01   1.00800           0
     10822 MEMB     82       POPC     C36      CTL2    -0.180000       12.0110           0
     10823 MEMB     82       POPC     H6X      HAL2     0.900000E-01   1.00800           0
     10824 MEMB     82       POPC     H6Y      HAL2     0.900000E-01   1.00800           0
     10825 MEMB     82       POPC     C37      CTL2    -0.180000       12.0110           0
     10826 MEMB     82       POPC     H7X      HAL2     0.900000E-01   1.00800           0
     10827 MEMB     82       POPC     H7Y      HAL2     0.900000E-01   1.00800           0
     10828 MEMB     82       POPC     C38      CTL2    -0.180000       12.0110           0
     10829 MEMB     82       POPC     H8X      HAL2     0.900000E-01   1.00800           0
     10830 MEMB     82       POPC     H8Y      HAL2     0.900000E-01   1.00800           0
     10831 MEMB     82       POPC     C39      CTL2    -0.180000       12.0110           0
     10832 MEMB     82       POPC     H9X      HAL2     0.900000E-01   1.00800           0
     10833 MEMB     82       POPC     H9Y      HAL2     0.900000E-01   1.00800           0
     10834 MEMB     82       POPC     C310     CTL2    -0.180000       12.0110           0
     10835 MEMB     82       POPC     H10X     HAL2     0.900000E-01   1.00800           0
     10836 MEMB     82       POPC     H10Y     HAL2     0.900000E-01   1.00800           0
     10837 MEMB     82       POPC     C311     CTL2    -0.180000       12.0110           0
     10838 MEMB     82       POPC     H11X     HAL2     0.900000E-01   1.00800           0
     10839 MEMB     82       POPC     H11Y     HAL2     0.900000E-01   1.00800           0
     10840 MEMB     82       POPC     C312     CTL2    -0.180000       12.0110           0
     10841 MEMB     82       POPC     H12X     HAL2     0.900000E-01   1.00800           0
     10842 MEMB     82       POPC     H12Y     HAL2     0.900000E-01   1.00800           0
     10843 MEMB     82       POPC     C313     CTL2    -0.180000       12.0110           0
     10844 MEMB     82       POPC     H13X     HAL2     0.900000E-01   1.00800           0
     10845 MEMB     82       POPC     H13Y     HAL2     0.900000E-01   1.00800           0
     10846 MEMB     82       POPC     C314     CTL2    -0.180000       12.0110           0
     10847 MEMB     82       POPC     H14X     HAL2     0.900000E-01   1.00800           0
     10848 MEMB     82       POPC     H14Y     HAL2     0.900000E-01   1.00800           0
     10849 MEMB     82       POPC     C315     CTL2    -0.180000       12.0110           0
     10850 MEMB     82       POPC     H15X     HAL2     0.900000E-01   1.00800           0
     10851 MEMB     82       POPC     H15Y     HAL2     0.900000E-01   1.00800           0
     10852 MEMB     82       POPC     C316     CTL3    -0.270000       12.0110           0
     10853 MEMB     82       POPC     H16X     HAL3     0.900000E-01   1.00800           0
     10854 MEMB     82       POPC     H16Y     HAL3     0.900000E-01   1.00800           0
     10855 MEMB     82       POPC     H16Z     HAL3     0.900000E-01   1.00800           0
     10856 MEMB     83       POPC     N        NTL     -0.600000       14.0070           0
     10857 MEMB     83       POPC     C12      CTL2    -0.100000       12.0110           0
     10858 MEMB     83       POPC     H12A     HL       0.250000       1.00800           0
     10859 MEMB     83       POPC     H12B     HL       0.250000       1.00800           0
     10860 MEMB     83       POPC     C13      CTL5    -0.350000       12.0110           0
     10861 MEMB     83       POPC     H13A     HL       0.250000       1.00800           0
     10862 MEMB     83       POPC     H13B     HL       0.250000       1.00800           0
     10863 MEMB     83       POPC     H13C     HL       0.250000       1.00800           0
     10864 MEMB     83       POPC     C14      CTL5    -0.350000       12.0110           0
     10865 MEMB     83       POPC     H14A     HL       0.250000       1.00800           0
     10866 MEMB     83       POPC     H14B     HL       0.250000       1.00800           0
     10867 MEMB     83       POPC     H14C     HL       0.250000       1.00800           0
     10868 MEMB     83       POPC     C15      CTL5    -0.350000       12.0110           0
     10869 MEMB     83       POPC     H15A     HL       0.250000       1.00800           0
     10870 MEMB     83       POPC     H15B     HL       0.250000       1.00800           0
     10871 MEMB     83       POPC     H15C     HL       0.250000       1.00800           0
     10872 MEMB     83       POPC     C11      CTL2    -0.800000E-01   12.0110           0
     10873 MEMB     83       POPC     H11A     HAL2     0.900000E-01   1.00800           0
     10874 MEMB     83       POPC     H11B     HAL2     0.900000E-01   1.00800           0
     10875 MEMB     83       POPC     P        PL        1.50000       30.9740           0
     10876 MEMB     83       POPC     O13      O2L     -0.780000       15.9994           0
     10877 MEMB     83       POPC     O14      O2L     -0.780000       15.9994           0
     10878 MEMB     83       POPC     O12      OSLP    -0.570000       15.9994           0
     10879 MEMB     83       POPC     O11      OSLP    -0.570000       15.9994           0
     10880 MEMB     83       POPC     C1       CTL2    -0.800000E-01   12.0110           0
     10881 MEMB     83       POPC     HA       HAL2     0.900000E-01   1.00800           0
     10882 MEMB     83       POPC     HB       HAL2     0.900000E-01   1.00800           0
     10883 MEMB     83       POPC     C2       CTL1     0.170000       12.0110           0
     10884 MEMB     83       POPC     HS       HAL1     0.900000E-01   1.00800           0
     10885 MEMB     83       POPC     O21      OSL     -0.490000       15.9994           0
     10886 MEMB     83       POPC     C21      CL       0.900000       12.0110           0
     10887 MEMB     83       POPC     O22      OBL     -0.630000       15.9994           0
     10888 MEMB     83       POPC     C22      CTL2    -0.220000       12.0110           0
     10889 MEMB     83       POPC     H2R      HAL2     0.900000E-01   1.00800           0
     10890 MEMB     83       POPC     H2S      HAL2     0.900000E-01   1.00800           0
     10891 MEMB     83       POPC     C3       CTL2     0.800000E-01   12.0110           0
     10892 MEMB     83       POPC     HX       HAL2     0.900000E-01   1.00800           0
     10893 MEMB     83       POPC     HY       HAL2     0.900000E-01   1.00800           0
     10894 MEMB     83       POPC     O31      OSL     -0.490000       15.9994           0
     10895 MEMB     83       POPC     C31      CL       0.900000       12.0110           0
     10896 MEMB     83       POPC     O32      OBL     -0.630000       15.9994           0
     10897 MEMB     83       POPC     C32      CTL2    -0.220000       12.0110           0
     10898 MEMB     83       POPC     H2X      HAL2     0.900000E-01   1.00800           0
     10899 MEMB     83       POPC     H2Y      HAL2     0.900000E-01   1.00800           0
     10900 MEMB     83       POPC     C23      CTL2    -0.180000       12.0110           0
     10901 MEMB     83       POPC     H3R      HAL2     0.900000E-01   1.00800           0
     10902 MEMB     83       POPC     H3S      HAL2     0.900000E-01   1.00800           0
     10903 MEMB     83       POPC     C24      CTL2    -0.180000       12.0110           0
     10904 MEMB     83       POPC     H4R      HAL2     0.900000E-01   1.00800           0
     10905 MEMB     83       POPC     H4S      HAL2     0.900000E-01   1.00800           0
     10906 MEMB     83       POPC     C25      CTL2    -0.180000       12.0110           0
     10907 MEMB     83       POPC     H5R      HAL2     0.900000E-01   1.00800           0
     10908 MEMB     83       POPC     H5S      HAL2     0.900000E-01   1.00800           0
     10909 MEMB     83       POPC     C26      CTL2    -0.180000       12.0110           0
     10910 MEMB     83       POPC     H6R      HAL2     0.900000E-01   1.00800           0
     10911 MEMB     83       POPC     H6S      HAL2     0.900000E-01   1.00800           0
     10912 MEMB     83       POPC     C27      CTL2    -0.180000       12.0110           0
     10913 MEMB     83       POPC     H7R      HAL2     0.900000E-01   1.00800           0
     10914 MEMB     83       POPC     H7S      HAL2     0.900000E-01   1.00800           0
     10915 MEMB     83       POPC     C28      CTL2    -0.180000       12.0110           0
     10916 MEMB     83       POPC     H8R      HAL2     0.900000E-01   1.00800           0
     10917 MEMB     83       POPC     H8S      HAL2     0.900000E-01   1.00800           0
     10918 MEMB     83       POPC     C29      CEL1    -0.150000       12.0110           0
     10919 MEMB     83       POPC     H91      HEL1     0.150000       1.00800           0
     10920 MEMB     83       POPC     C210     CEL1    -0.150000       12.0110           0
     10921 MEMB     83       POPC     H101     HEL1     0.150000       1.00800           0
     10922 MEMB     83       POPC     C211     CTL2    -0.180000       12.0110           0
     10923 MEMB     83       POPC     H11R     HAL2     0.900000E-01   1.00800           0
     10924 MEMB     83       POPC     H11S     HAL2     0.900000E-01   1.00800           0
     10925 MEMB     83       POPC     C212     CTL2    -0.180000       12.0110           0
     10926 MEMB     83       POPC     H12R     HAL2     0.900000E-01   1.00800           0
     10927 MEMB     83       POPC     H12S     HAL2     0.900000E-01   1.00800           0
     10928 MEMB     83       POPC     C213     CTL2    -0.180000       12.0110           0
     10929 MEMB     83       POPC     H13R     HAL2     0.900000E-01   1.00800           0
     10930 MEMB     83       POPC     H13S     HAL2     0.900000E-01   1.00800           0
     10931 MEMB     83       POPC     C214     CTL2    -0.180000       12.0110           0
     10932 MEMB     83       POPC     H14R     HAL2     0.900000E-01   1.00800           0
     10933 MEMB     83       POPC     H14S     HAL2     0.900000E-01   1.00800           0
     10934 MEMB     83       POPC     C215     CTL2    -0.180000       12.0110           0
     10935 MEMB     83       POPC     H15R     HAL2     0.900000E-01   1.00800           0
     10936 MEMB     83       POPC     H15S     HAL2     0.900000E-01   1.00800           0
     10937 MEMB     83       POPC     C216     CTL2    -0.180000       12.0110           0
     10938 MEMB     83       POPC     H16R     HAL2     0.900000E-01   1.00800           0
     10939 MEMB     83       POPC     H16S     HAL2     0.900000E-01   1.00800           0
     10940 MEMB     83       POPC     C217     CTL2    -0.180000       12.0110           0
     10941 MEMB     83       POPC     H17R     HAL2     0.900000E-01   1.00800           0
     10942 MEMB     83       POPC     H17S     HAL2     0.900000E-01   1.00800           0
     10943 MEMB     83       POPC     C218     CTL3    -0.270000       12.0110           0
     10944 MEMB     83       POPC     H18R     HAL3     0.900000E-01   1.00800           0
     10945 MEMB     83       POPC     H18S     HAL3     0.900000E-01   1.00800           0
     10946 MEMB     83       POPC     H18T     HAL3     0.900000E-01   1.00800           0
     10947 MEMB     83       POPC     C33      CTL2    -0.180000       12.0110           0
     10948 MEMB     83       POPC     H3X      HAL2     0.900000E-01   1.00800           0
     10949 MEMB     83       POPC     H3Y      HAL2     0.900000E-01   1.00800           0
     10950 MEMB     83       POPC     C34      CTL2    -0.180000       12.0110           0
     10951 MEMB     83       POPC     H4X      HAL2     0.900000E-01   1.00800           0
     10952 MEMB     83       POPC     H4Y      HAL2     0.900000E-01   1.00800           0
     10953 MEMB     83       POPC     C35      CTL2    -0.180000       12.0110           0
     10954 MEMB     83       POPC     H5X      HAL2     0.900000E-01   1.00800           0
     10955 MEMB     83       POPC     H5Y      HAL2     0.900000E-01   1.00800           0
     10956 MEMB     83       POPC     C36      CTL2    -0.180000       12.0110           0
     10957 MEMB     83       POPC     H6X      HAL2     0.900000E-01   1.00800           0
     10958 MEMB     83       POPC     H6Y      HAL2     0.900000E-01   1.00800           0
     10959 MEMB     83       POPC     C37      CTL2    -0.180000       12.0110           0
     10960 MEMB     83       POPC     H7X      HAL2     0.900000E-01   1.00800           0
     10961 MEMB     83       POPC     H7Y      HAL2     0.900000E-01   1.00800           0
     10962 MEMB     83       POPC     C38      CTL2    -0.180000       12.0110           0
     10963 MEMB     83       POPC     H8X      HAL2     0.900000E-01   1.00800           0
     10964 MEMB     83       POPC     H8Y      HAL2     0.900000E-01   1.00800           0
     10965 MEMB     83       POPC     C39      CTL2    -0.180000       12.0110           0
     10966 MEMB     83       POPC     H9X      HAL2     0.900000E-01   1.00800           0
     10967 MEMB     83       POPC     H9Y      HAL2     0.900000E-01   1.00800           0
     10968 MEMB     83       POPC     C310     CTL2    -0.180000       12.0110           0
     10969 MEMB     83       POPC     H10X     HAL2     0.900000E-01   1.00800           0
     10970 MEMB     83       POPC     H10Y     HAL2     0.900000E-01   1.00800           0
     10971 MEMB     83       POPC     C311     CTL2    -0.180000       12.0110           0
     10972 MEMB     83       POPC     H11X     HAL2     0.900000E-01   1.00800           0
     10973 MEMB     83       POPC     H11Y     HAL2     0.900000E-01   1.00800           0
     10974 MEMB     83       POPC     C312     CTL2    -0.180000       12.0110           0
     10975 MEMB     83       POPC     H12X     HAL2     0.900000E-01   1.00800           0
     10976 MEMB     83       POPC     H12Y     HAL2     0.900000E-01   1.00800           0
     10977 MEMB     83       POPC     C313     CTL2    -0.180000       12.0110           0
     10978 MEMB     83       POPC     H13X     HAL2     0.900000E-01   1.00800           0
     10979 MEMB     83       POPC     H13Y     HAL2     0.900000E-01   1.00800           0
     10980 MEMB     83       POPC     C314     CTL2    -0.180000       12.0110           0
     10981 MEMB     83       POPC     H14X     HAL2     0.900000E-01   1.00800           0
     10982 MEMB     83       POPC     H14Y     HAL2     0.900000E-01   1.00800           0
     10983 MEMB     83       POPC     C315     CTL2    -0.180000       12.0110           0
     10984 MEMB     83       POPC     H15X     HAL2     0.900000E-01   1.00800           0
     10985 MEMB     83       POPC     H15Y     HAL2     0.900000E-01   1.00800           0
     10986 MEMB     83       POPC     C316     CTL3    -0.270000       12.0110           0
     10987 MEMB     83       POPC     H16X     HAL3     0.900000E-01   1.00800           0
     10988 MEMB     83       POPC     H16Y     HAL3     0.900000E-01   1.00800           0
     10989 MEMB     83       POPC     H16Z     HAL3     0.900000E-01   1.00800           0
     10990 MEMB     84       POPC     N        NTL     -0.600000       14.0070           0
     10991 MEMB     84       POPC     C12      CTL2    -0.100000       12.0110           0
     10992 MEMB     84       POPC     H12A     HL       0.250000       1.00800           0
     10993 MEMB     84       POPC     H12B     HL       0.250000       1.00800           0
     10994 MEMB     84       POPC     C13      CTL5    -0.350000       12.0110           0
     10995 MEMB     84       POPC     H13A     HL       0.250000       1.00800           0
     10996 MEMB     84       POPC     H13B     HL       0.250000       1.00800           0
     10997 MEMB     84       POPC     H13C     HL       0.250000       1.00800           0
     10998 MEMB     84       POPC     C14      CTL5    -0.350000       12.0110           0
     10999 MEMB     84       POPC     H14A     HL       0.250000       1.00800           0
     11000 MEMB     84       POPC     H14B     HL       0.250000       1.00800           0
     11001 MEMB     84       POPC     H14C     HL       0.250000       1.00800           0
     11002 MEMB     84       POPC     C15      CTL5    -0.350000       12.0110           0
     11003 MEMB     84       POPC     H15A     HL       0.250000       1.00800           0
     11004 MEMB     84       POPC     H15B     HL       0.250000       1.00800           0
     11005 MEMB     84       POPC     H15C     HL       0.250000       1.00800           0
     11006 MEMB     84       POPC     C11      CTL2    -0.800000E-01   12.0110           0
     11007 MEMB     84       POPC     H11A     HAL2     0.900000E-01   1.00800           0
     11008 MEMB     84       POPC     H11B     HAL2     0.900000E-01   1.00800           0
     11009 MEMB     84       POPC     P        PL        1.50000       30.9740           0
     11010 MEMB     84       POPC     O13      O2L     -0.780000       15.9994           0
     11011 MEMB     84       POPC     O14      O2L     -0.780000       15.9994           0
     11012 MEMB     84       POPC     O12      OSLP    -0.570000       15.9994           0
     11013 MEMB     84       POPC     O11      OSLP    -0.570000       15.9994           0
     11014 MEMB     84       POPC     C1       CTL2    -0.800000E-01   12.0110           0
     11015 MEMB     84       POPC     HA       HAL2     0.900000E-01   1.00800           0
     11016 MEMB     84       POPC     HB       HAL2     0.900000E-01   1.00800           0
     11017 MEMB     84       POPC     C2       CTL1     0.170000       12.0110           0
     11018 MEMB     84       POPC     HS       HAL1     0.900000E-01   1.00800           0
     11019 MEMB     84       POPC     O21      OSL     -0.490000       15.9994           0
     11020 MEMB     84       POPC     C21      CL       0.900000       12.0110           0
     11021 MEMB     84       POPC     O22      OBL     -0.630000       15.9994           0
     11022 MEMB     84       POPC     C22      CTL2    -0.220000       12.0110           0
     11023 MEMB     84       POPC     H2R      HAL2     0.900000E-01   1.00800           0
     11024 MEMB     84       POPC     H2S      HAL2     0.900000E-01   1.00800           0
     11025 MEMB     84       POPC     C3       CTL2     0.800000E-01   12.0110           0
     11026 MEMB     84       POPC     HX       HAL2     0.900000E-01   1.00800           0
     11027 MEMB     84       POPC     HY       HAL2     0.900000E-01   1.00800           0
     11028 MEMB     84       POPC     O31      OSL     -0.490000       15.9994           0
     11029 MEMB     84       POPC     C31      CL       0.900000       12.0110           0
     11030 MEMB     84       POPC     O32      OBL     -0.630000       15.9994           0
     11031 MEMB     84       POPC     C32      CTL2    -0.220000       12.0110           0
     11032 MEMB     84       POPC     H2X      HAL2     0.900000E-01   1.00800           0
     11033 MEMB     84       POPC     H2Y      HAL2     0.900000E-01   1.00800           0
     11034 MEMB     84       POPC     C23      CTL2    -0.180000       12.0110           0
     11035 MEMB     84       POPC     H3R      HAL2     0.900000E-01   1.00800           0
     11036 MEMB     84       POPC     H3S      HAL2     0.900000E-01   1.00800           0
     11037 MEMB     84       POPC     C24      CTL2    -0.180000       12.0110           0
     11038 MEMB     84       POPC     H4R      HAL2     0.900000E-01   1.00800           0
     11039 MEMB     84       POPC     H4S      HAL2     0.900000E-01   1.00800           0
     11040 MEMB     84       POPC     C25      CTL2    -0.180000       12.0110           0
     11041 MEMB     84       POPC     H5R      HAL2     0.900000E-01   1.00800           0
     11042 MEMB     84       POPC     H5S      HAL2     0.900000E-01   1.00800           0
     11043 MEMB     84       POPC     C26      CTL2    -0.180000       12.0110           0
     11044 MEMB     84       POPC     H6R      HAL2     0.900000E-01   1.00800           0
     11045 MEMB     84       POPC     H6S      HAL2     0.900000E-01   1.00800           0
     11046 MEMB     84       POPC     C27      CTL2    -0.180000       12.0110           0
     11047 MEMB     84       POPC     H7R      HAL2     0.900000E-01   1.00800           0
     11048 MEMB     84       POPC     H7S      HAL2     0.900000E-01   1.00800           0
     11049 MEMB     84       POPC     C28      CTL2    -0.180000       12.0110           0
     11050 MEMB     84       POPC     H8R      HAL2     0.900000E-01   1.00800           0
     11051 MEMB     84       POPC     H8S      HAL2     0.900000E-01   1.00800           0
     11052 MEMB     84       POPC     C29      CEL1    -0.150000       12.0110           0
     11053 MEMB     84       POPC     H91      HEL1     0.150000       1.00800           0
     11054 MEMB     84       POPC     C210     CEL1    -0.150000       12.0110           0
     11055 MEMB     84       POPC     H101     HEL1     0.150000       1.00800           0
     11056 MEMB     84       POPC     C211     CTL2    -0.180000       12.0110           0
     11057 MEMB     84       POPC     H11R     HAL2     0.900000E-01   1.00800           0
     11058 MEMB     84       POPC     H11S     HAL2     0.900000E-01   1.00800           0
     11059 MEMB     84       POPC     C212     CTL2    -0.180000       12.0110           0
     11060 MEMB     84       POPC     H12R     HAL2     0.900000E-01   1.00800           0
     11061 MEMB     84       POPC     H12S     HAL2     0.900000E-01   1.00800           0
     11062 MEMB     84       POPC     C213     CTL2    -0.180000       12.0110           0
     11063 MEMB     84       POPC     H13R     HAL2     0.900000E-01   1.00800           0
     11064 MEMB     84       POPC     H13S     HAL2     0.900000E-01   1.00800           0
     11065 MEMB     84       POPC     C214     CTL2    -0.180000       12.0110           0
     11066 MEMB     84       POPC     H14R     HAL2     0.900000E-01   1.00800           0
     11067 MEMB     84       POPC     H14S     HAL2     0.900000E-01   1.00800           0
     11068 MEMB     84       POPC     C215     CTL2    -0.180000       12.0110           0
     11069 MEMB     84       POPC     H15R     HAL2     0.900000E-01   1.00800           0
     11070 MEMB     84       POPC     H15S     HAL2     0.900000E-01   1.00800           0
     11071 MEMB     84       POPC     C216     CTL2    -0.180000       12.0110           0
     11072 MEMB     84       POPC     H16R     HAL2     0.900000E-01   1.00800           0
     11073 MEMB     84       POPC     H16S     HAL2     0.900000E-01   1.00800           0
     11074 MEMB     84       POPC     C217     CTL2    -0.180000       12.0110           0
     11075 MEMB     84       POPC     H17R     HAL2     0.900000E-01   1.00800           0
     11076 MEMB     84       POPC     H17S     HAL2     0.900000E-01   1.00800           0
     11077 MEMB     84       POPC     C218     CTL3    -0.270000       12.0110           0
     11078 MEMB     84       POPC     H18R     HAL3     0.900000E-01   1.00800           0
     11079 MEMB     84       POPC     H18S     HAL3     0.900000E-01   1.00800           0
     11080 MEMB     84       POPC     H18T     HAL3     0.900000E-01   1.00800           0
     11081 MEMB     84       POPC     C33      CTL2    -0.180000       12.0110           0
     11082 MEMB     84       POPC     H3X      HAL2     0.900000E-01   1.00800           0
     11083 MEMB     84       POPC     H3Y      HAL2     0.900000E-01   1.00800           0
     11084 MEMB     84       POPC     C34      CTL2    -0.180000       12.0110           0
     11085 MEMB     84       POPC     H4X      HAL2     0.900000E-01   1.00800           0
     11086 MEMB     84       POPC     H4Y      HAL2     0.900000E-01   1.00800           0
     11087 MEMB     84       POPC     C35      CTL2    -0.180000       12.0110           0
     11088 MEMB     84       POPC     H5X      HAL2     0.900000E-01   1.00800           0
     11089 MEMB     84       POPC     H5Y      HAL2     0.900000E-01   1.00800           0
     11090 MEMB     84       POPC     C36      CTL2    -0.180000       12.0110           0
     11091 MEMB     84       POPC     H6X      HAL2     0.900000E-01   1.00800           0
     11092 MEMB     84       POPC     H6Y      HAL2     0.900000E-01   1.00800           0
     11093 MEMB     84       POPC     C37      CTL2    -0.180000       12.0110           0
     11094 MEMB     84       POPC     H7X      HAL2     0.900000E-01   1.00800           0
     11095 MEMB     84       POPC     H7Y      HAL2     0.900000E-01   1.00800           0
     11096 MEMB     84       POPC     C38      CTL2    -0.180000       12.0110           0
     11097 MEMB     84       POPC     H8X      HAL2     0.900000E-01   1.00800           0
     11098 MEMB     84       POPC     H8Y      HAL2     0.900000E-01   1.00800           0
     11099 MEMB     84       POPC     C39      CTL2    -0.180000       12.0110           0
     11100 MEMB     84       POPC     H9X      HAL2     0.900000E-01   1.00800           0
     11101 MEMB     84       POPC     H9Y      HAL2     0.900000E-01   1.00800           0
     11102 MEMB     84       POPC     C310     CTL2    -0.180000       12.0110           0
     11103 MEMB     84       POPC     H10X     HAL2     0.900000E-01   1.00800           0
     11104 MEMB     84       POPC     H10Y     HAL2     0.900000E-01   1.00800           0
     11105 MEMB     84       POPC     C311     CTL2    -0.180000       12.0110           0
     11106 MEMB     84       POPC     H11X     HAL2     0.900000E-01   1.00800           0
     11107 MEMB     84       POPC     H11Y     HAL2     0.900000E-01   1.00800           0
     11108 MEMB     84       POPC     C312     CTL2    -0.180000       12.0110           0
     11109 MEMB     84       POPC     H12X     HAL2     0.900000E-01   1.00800           0
     11110 MEMB     84       POPC     H12Y     HAL2     0.900000E-01   1.00800           0
     11111 MEMB     84       POPC     C313     CTL2    -0.180000       12.0110           0
     11112 MEMB     84       POPC     H13X     HAL2     0.900000E-01   1.00800           0
     11113 MEMB     84       POPC     H13Y     HAL2     0.900000E-01   1.00800           0
     11114 MEMB     84       POPC     C314     CTL2    -0.180000       12.0110           0
     11115 MEMB     84       POPC     H14X     HAL2     0.900000E-01   1.00800           0
     11116 MEMB     84       POPC     H14Y     HAL2     0.900000E-01   1.00800           0
     11117 MEMB     84       POPC     C315     CTL2    -0.180000       12.0110           0
     11118 MEMB     84       POPC     H15X     HAL2     0.900000E-01   1.00800           0
     11119 MEMB     84       POPC     H15Y     HAL2     0.900000E-01   1.00800           0
     11120 MEMB     84       POPC     C316     CTL3    -0.270000       12.0110           0
     11121 MEMB     84       POPC     H16X     HAL3     0.900000E-01   1.00800           0
     11122 MEMB     84       POPC     H16Y     HAL3     0.900000E-01   1.00800           0
     11123 MEMB     84       POPC     H16Z     HAL3     0.900000E-01   1.00800           0
     11124 MEMB     85       POPC     N        NTL     -0.600000       14.0070           0
     11125 MEMB     85       POPC     C12      CTL2    -0.100000       12.0110           0
     11126 MEMB     85       POPC     H12A     HL       0.250000       1.00800           0
     11127 MEMB     85       POPC     H12B     HL       0.250000       1.00800           0
     11128 MEMB     85       POPC     C13      CTL5    -0.350000       12.0110           0
     11129 MEMB     85       POPC     H13A     HL       0.250000       1.00800           0
     11130 MEMB     85       POPC     H13B     HL       0.250000       1.00800           0
     11131 MEMB     85       POPC     H13C     HL       0.250000       1.00800           0
     11132 MEMB     85       POPC     C14      CTL5    -0.350000       12.0110           0
     11133 MEMB     85       POPC     H14A     HL       0.250000       1.00800           0
     11134 MEMB     85       POPC     H14B     HL       0.250000       1.00800           0
     11135 MEMB     85       POPC     H14C     HL       0.250000       1.00800           0
     11136 MEMB     85       POPC     C15      CTL5    -0.350000       12.0110           0
     11137 MEMB     85       POPC     H15A     HL       0.250000       1.00800           0
     11138 MEMB     85       POPC     H15B     HL       0.250000       1.00800           0
     11139 MEMB     85       POPC     H15C     HL       0.250000       1.00800           0
     11140 MEMB     85       POPC     C11      CTL2    -0.800000E-01   12.0110           0
     11141 MEMB     85       POPC     H11A     HAL2     0.900000E-01   1.00800           0
     11142 MEMB     85       POPC     H11B     HAL2     0.900000E-01   1.00800           0
     11143 MEMB     85       POPC     P        PL        1.50000       30.9740           0
     11144 MEMB     85       POPC     O13      O2L     -0.780000       15.9994           0
     11145 MEMB     85       POPC     O14      O2L     -0.780000       15.9994           0
     11146 MEMB     85       POPC     O12      OSLP    -0.570000       15.9994           0
     11147 MEMB     85       POPC     O11      OSLP    -0.570000       15.9994           0
     11148 MEMB     85       POPC     C1       CTL2    -0.800000E-01   12.0110           0
     11149 MEMB     85       POPC     HA       HAL2     0.900000E-01   1.00800           0
     11150 MEMB     85       POPC     HB       HAL2     0.900000E-01   1.00800           0
     11151 MEMB     85       POPC     C2       CTL1     0.170000       12.0110           0
     11152 MEMB     85       POPC     HS       HAL1     0.900000E-01   1.00800           0
     11153 MEMB     85       POPC     O21      OSL     -0.490000       15.9994           0
     11154 MEMB     85       POPC     C21      CL       0.900000       12.0110           0
     11155 MEMB     85       POPC     O22      OBL     -0.630000       15.9994           0
     11156 MEMB     85       POPC     C22      CTL2    -0.220000       12.0110           0
     11157 MEMB     85       POPC     H2R      HAL2     0.900000E-01   1.00800           0
     11158 MEMB     85       POPC     H2S      HAL2     0.900000E-01   1.00800           0
     11159 MEMB     85       POPC     C3       CTL2     0.800000E-01   12.0110           0
     11160 MEMB     85       POPC     HX       HAL2     0.900000E-01   1.00800           0
     11161 MEMB     85       POPC     HY       HAL2     0.900000E-01   1.00800           0
     11162 MEMB     85       POPC     O31      OSL     -0.490000       15.9994           0
     11163 MEMB     85       POPC     C31      CL       0.900000       12.0110           0
     11164 MEMB     85       POPC     O32      OBL     -0.630000       15.9994           0
     11165 MEMB     85       POPC     C32      CTL2    -0.220000       12.0110           0
     11166 MEMB     85       POPC     H2X      HAL2     0.900000E-01   1.00800           0
     11167 MEMB     85       POPC     H2Y      HAL2     0.900000E-01   1.00800           0
     11168 MEMB     85       POPC     C23      CTL2    -0.180000       12.0110           0
     11169 MEMB     85       POPC     H3R      HAL2     0.900000E-01   1.00800           0
     11170 MEMB     85       POPC     H3S      HAL2     0.900000E-01   1.00800           0
     11171 MEMB     85       POPC     C24      CTL2    -0.180000       12.0110           0
     11172 MEMB     85       POPC     H4R      HAL2     0.900000E-01   1.00800           0
     11173 MEMB     85       POPC     H4S      HAL2     0.900000E-01   1.00800           0
     11174 MEMB     85       POPC     C25      CTL2    -0.180000       12.0110           0
     11175 MEMB     85       POPC     H5R      HAL2     0.900000E-01   1.00800           0
     11176 MEMB     85       POPC     H5S      HAL2     0.900000E-01   1.00800           0
     11177 MEMB     85       POPC     C26      CTL2    -0.180000       12.0110           0
     11178 MEMB     85       POPC     H6R      HAL2     0.900000E-01   1.00800           0
     11179 MEMB     85       POPC     H6S      HAL2     0.900000E-01   1.00800           0
     11180 MEMB     85       POPC     C27      CTL2    -0.180000       12.0110           0
     11181 MEMB     85       POPC     H7R      HAL2     0.900000E-01   1.00800           0
     11182 MEMB     85       POPC     H7S      HAL2     0.900000E-01   1.00800           0
     11183 MEMB     85       POPC     C28      CTL2    -0.180000       12.0110           0
     11184 MEMB     85       POPC     H8R      HAL2     0.900000E-01   1.00800           0
     11185 MEMB     85       POPC     H8S      HAL2     0.900000E-01   1.00800           0
     11186 MEMB     85       POPC     C29      CEL1    -0.150000       12.0110           0
     11187 MEMB     85       POPC     H91      HEL1     0.150000       1.00800           0
     11188 MEMB     85       POPC     C210     CEL1    -0.150000       12.0110           0
     11189 MEMB     85       POPC     H101     HEL1     0.150000       1.00800           0
     11190 MEMB     85       POPC     C211     CTL2    -0.180000       12.0110           0
     11191 MEMB     85       POPC     H11R     HAL2     0.900000E-01   1.00800           0
     11192 MEMB     85       POPC     H11S     HAL2     0.900000E-01   1.00800           0
     11193 MEMB     85       POPC     C212     CTL2    -0.180000       12.0110           0
     11194 MEMB     85       POPC     H12R     HAL2     0.900000E-01   1.00800           0
     11195 MEMB     85       POPC     H12S     HAL2     0.900000E-01   1.00800           0
     11196 MEMB     85       POPC     C213     CTL2    -0.180000       12.0110           0
     11197 MEMB     85       POPC     H13R     HAL2     0.900000E-01   1.00800           0
     11198 MEMB     85       POPC     H13S     HAL2     0.900000E-01   1.00800           0
     11199 MEMB     85       POPC     C214     CTL2    -0.180000       12.0110           0
     11200 MEMB     85       POPC     H14R     HAL2     0.900000E-01   1.00800           0
     11201 MEMB     85       POPC     H14S     HAL2     0.900000E-01   1.00800           0
     11202 MEMB     85       POPC     C215     CTL2    -0.180000       12.0110           0
     11203 MEMB     85       POPC     H15R     HAL2     0.900000E-01   1.00800           0
     11204 MEMB     85       POPC     H15S     HAL2     0.900000E-01   1.00800           0
     11205 MEMB     85       POPC     C216     CTL2    -0.180000       12.0110           0
     11206 MEMB     85       POPC     H16R     HAL2     0.900000E-01   1.00800           0
     11207 MEMB     85       POPC     H16S     HAL2     0.900000E-01   1.00800           0
     11208 MEMB     85       POPC     C217     CTL2    -0.180000       12.0110           0
     11209 MEMB     85       POPC     H17R     HAL2     0.900000E-01   1.00800           0
     11210 MEMB     85       POPC     H17S     HAL2     0.900000E-01   1.00800           0
     11211 MEMB     85       POPC     C218     CTL3    -0.270000       12.0110           0
     11212 MEMB     85       POPC     H18R     HAL3     0.900000E-01   1.00800           0
     11213 MEMB     85       POPC     H18S     HAL3     0.900000E-01   1.00800           0
     11214 MEMB     85       POPC     H18T     HAL3     0.900000E-01   1.00800           0
     11215 MEMB     85       POPC     C33      CTL2    -0.180000       12.0110           0
     11216 MEMB     85       POPC     H3X      HAL2     0.900000E-01   1.00800           0
     11217 MEMB     85       POPC     H3Y      HAL2     0.900000E-01   1.00800           0
     11218 MEMB     85       POPC     C34      CTL2    -0.180000       12.0110           0
     11219 MEMB     85       POPC     H4X      HAL2     0.900000E-01   1.00800           0
     11220 MEMB     85       POPC     H4Y      HAL2     0.900000E-01   1.00800           0
     11221 MEMB     85       POPC     C35      CTL2    -0.180000       12.0110           0
     11222 MEMB     85       POPC     H5X      HAL2     0.900000E-01   1.00800           0
     11223 MEMB     85       POPC     H5Y      HAL2     0.900000E-01   1.00800           0
     11224 MEMB     85       POPC     C36      CTL2    -0.180000       12.0110           0
     11225 MEMB     85       POPC     H6X      HAL2     0.900000E-01   1.00800           0
     11226 MEMB     85       POPC     H6Y      HAL2     0.900000E-01   1.00800           0
     11227 MEMB     85       POPC     C37      CTL2    -0.180000       12.0110           0
     11228 MEMB     85       POPC     H7X      HAL2     0.900000E-01   1.00800           0
     11229 MEMB     85       POPC     H7Y      HAL2     0.900000E-01   1.00800           0
     11230 MEMB     85       POPC     C38      CTL2    -0.180000       12.0110           0
     11231 MEMB     85       POPC     H8X      HAL2     0.900000E-01   1.00800           0
     11232 MEMB     85       POPC     H8Y      HAL2     0.900000E-01   1.00800           0
     11233 MEMB     85       POPC     C39      CTL2    -0.180000       12.0110           0
     11234 MEMB     85       POPC     H9X      HAL2     0.900000E-01   1.00800           0
     11235 MEMB     85       POPC     H9Y      HAL2     0.900000E-01   1.00800           0
     11236 MEMB     85       POPC     C310     CTL2    -0.180000       12.0110           0
     11237 MEMB     85       POPC     H10X     HAL2     0.900000E-01   1.00800           0
     11238 MEMB     85       POPC     H10Y     HAL2     0.900000E-01   1.00800           0
     11239 MEMB     85       POPC     C311     CTL2    -0.180000       12.0110           0
     11240 MEMB     85       POPC     H11X     HAL2     0.900000E-01   1.00800           0
     11241 MEMB     85       POPC     H11Y     HAL2     0.900000E-01   1.00800           0
     11242 MEMB     85       POPC     C312     CTL2    -0.180000       12.0110           0
     11243 MEMB     85       POPC     H12X     HAL2     0.900000E-01   1.00800           0
     11244 MEMB     85       POPC     H12Y     HAL2     0.900000E-01   1.00800           0
     11245 MEMB     85       POPC     C313     CTL2    -0.180000       12.0110           0
     11246 MEMB     85       POPC     H13X     HAL2     0.900000E-01   1.00800           0
     11247 MEMB     85       POPC     H13Y     HAL2     0.900000E-01   1.00800           0
     11248 MEMB     85       POPC     C314     CTL2    -0.180000       12.0110           0
     11249 MEMB     85       POPC     H14X     HAL2     0.900000E-01   1.00800           0
     11250 MEMB     85       POPC     H14Y     HAL2     0.900000E-01   1.00800           0
     11251 MEMB     85       POPC     C315     CTL2    -0.180000       12.0110           0
     11252 MEMB     85       POPC     H15X     HAL2     0.900000E-01   1.00800           0
     11253 MEMB     85       POPC     H15Y     HAL2     0.900000E-01   1.00800           0
     11254 MEMB     85       POPC     C316     CTL3    -0.270000       12.0110           0
     11255 MEMB     85       POPC     H16X     HAL3     0.900000E-01   1.00800           0
     11256 MEMB     85       POPC     H16Y     HAL3     0.900000E-01   1.00800           0
     11257 MEMB     85       POPC     H16Z     HAL3     0.900000E-01   1.00800           0
     11258 MEMB     86       POPC     N        NTL     -0.600000       14.0070           0
     11259 MEMB     86       POPC     C12      CTL2    -0.100000       12.0110           0
     11260 MEMB     86       POPC     H12A     HL       0.250000       1.00800           0
     11261 MEMB     86       POPC     H12B     HL       0.250000       1.00800           0
     11262 MEMB     86       POPC     C13      CTL5    -0.350000       12.0110           0
     11263 MEMB     86       POPC     H13A     HL       0.250000       1.00800           0
     11264 MEMB     86       POPC     H13B     HL       0.250000       1.00800           0
     11265 MEMB     86       POPC     H13C     HL       0.250000       1.00800           0
     11266 MEMB     86       POPC     C14      CTL5    -0.350000       12.0110           0
     11267 MEMB     86       POPC     H14A     HL       0.250000       1.00800           0
     11268 MEMB     86       POPC     H14B     HL       0.250000       1.00800           0
     11269 MEMB     86       POPC     H14C     HL       0.250000       1.00800           0
     11270 MEMB     86       POPC     C15      CTL5    -0.350000       12.0110           0
     11271 MEMB     86       POPC     H15A     HL       0.250000       1.00800           0
     11272 MEMB     86       POPC     H15B     HL       0.250000       1.00800           0
     11273 MEMB     86       POPC     H15C     HL       0.250000       1.00800           0
     11274 MEMB     86       POPC     C11      CTL2    -0.800000E-01   12.0110           0
     11275 MEMB     86       POPC     H11A     HAL2     0.900000E-01   1.00800           0
     11276 MEMB     86       POPC     H11B     HAL2     0.900000E-01   1.00800           0
     11277 MEMB     86       POPC     P        PL        1.50000       30.9740           0
     11278 MEMB     86       POPC     O13      O2L     -0.780000       15.9994           0
     11279 MEMB     86       POPC     O14      O2L     -0.780000       15.9994           0
     11280 MEMB     86       POPC     O12      OSLP    -0.570000       15.9994           0
     11281 MEMB     86       POPC     O11      OSLP    -0.570000       15.9994           0
     11282 MEMB     86       POPC     C1       CTL2    -0.800000E-01   12.0110           0
     11283 MEMB     86       POPC     HA       HAL2     0.900000E-01   1.00800           0
     11284 MEMB     86       POPC     HB       HAL2     0.900000E-01   1.00800           0
     11285 MEMB     86       POPC     C2       CTL1     0.170000       12.0110           0
     11286 MEMB     86       POPC     HS       HAL1     0.900000E-01   1.00800           0
     11287 MEMB     86       POPC     O21      OSL     -0.490000       15.9994           0
     11288 MEMB     86       POPC     C21      CL       0.900000       12.0110           0
     11289 MEMB     86       POPC     O22      OBL     -0.630000       15.9994           0
     11290 MEMB     86       POPC     C22      CTL2    -0.220000       12.0110           0
     11291 MEMB     86       POPC     H2R      HAL2     0.900000E-01   1.00800           0
     11292 MEMB     86       POPC     H2S      HAL2     0.900000E-01   1.00800           0
     11293 MEMB     86       POPC     C3       CTL2     0.800000E-01   12.0110           0
     11294 MEMB     86       POPC     HX       HAL2     0.900000E-01   1.00800           0
     11295 MEMB     86       POPC     HY       HAL2     0.900000E-01   1.00800           0
     11296 MEMB     86       POPC     O31      OSL     -0.490000       15.9994           0
     11297 MEMB     86       POPC     C31      CL       0.900000       12.0110           0
     11298 MEMB     86       POPC     O32      OBL     -0.630000       15.9994           0
     11299 MEMB     86       POPC     C32      CTL2    -0.220000       12.0110           0
     11300 MEMB     86       POPC     H2X      HAL2     0.900000E-01   1.00800           0
     11301 MEMB     86       POPC     H2Y      HAL2     0.900000E-01   1.00800           0
     11302 MEMB     86       POPC     C23      CTL2    -0.180000       12.0110           0
     11303 MEMB     86       POPC     H3R      HAL2     0.900000E-01   1.00800           0
     11304 MEMB     86       POPC     H3S      HAL2     0.900000E-01   1.00800           0
     11305 MEMB     86       POPC     C24      CTL2    -0.180000       12.0110           0
     11306 MEMB     86       POPC     H4R      HAL2     0.900000E-01   1.00800           0
     11307 MEMB     86       POPC     H4S      HAL2     0.900000E-01   1.00800           0
     11308 MEMB     86       POPC     C25      CTL2    -0.180000       12.0110           0
     11309 MEMB     86       POPC     H5R      HAL2     0.900000E-01   1.00800           0
     11310 MEMB     86       POPC     H5S      HAL2     0.900000E-01   1.00800           0
     11311 MEMB     86       POPC     C26      CTL2    -0.180000       12.0110           0
     11312 MEMB     86       POPC     H6R      HAL2     0.900000E-01   1.00800           0
     11313 MEMB     86       POPC     H6S      HAL2     0.900000E-01   1.00800           0
     11314 MEMB     86       POPC     C27      CTL2    -0.180000       12.0110           0
     11315 MEMB     86       POPC     H7R      HAL2     0.900000E-01   1.00800           0
     11316 MEMB     86       POPC     H7S      HAL2     0.900000E-01   1.00800           0
     11317 MEMB     86       POPC     C28      CTL2    -0.180000       12.0110           0
     11318 MEMB     86       POPC     H8R      HAL2     0.900000E-01   1.00800           0
     11319 MEMB     86       POPC     H8S      HAL2     0.900000E-01   1.00800           0
     11320 MEMB     86       POPC     C29      CEL1    -0.150000       12.0110           0
     11321 MEMB     86       POPC     H91      HEL1     0.150000       1.00800           0
     11322 MEMB     86       POPC     C210     CEL1    -0.150000       12.0110           0
     11323 MEMB     86       POPC     H101     HEL1     0.150000       1.00800           0
     11324 MEMB     86       POPC     C211     CTL2    -0.180000       12.0110           0
     11325 MEMB     86       POPC     H11R     HAL2     0.900000E-01   1.00800           0
     11326 MEMB     86       POPC     H11S     HAL2     0.900000E-01   1.00800           0
     11327 MEMB     86       POPC     C212     CTL2    -0.180000       12.0110           0
     11328 MEMB     86       POPC     H12R     HAL2     0.900000E-01   1.00800           0
     11329 MEMB     86       POPC     H12S     HAL2     0.900000E-01   1.00800           0
     11330 MEMB     86       POPC     C213     CTL2    -0.180000       12.0110           0
     11331 MEMB     86       POPC     H13R     HAL2     0.900000E-01   1.00800           0
     11332 MEMB     86       POPC     H13S     HAL2     0.900000E-01   1.00800           0
     11333 MEMB     86       POPC     C214     CTL2    -0.180000       12.0110           0
     11334 MEMB     86       POPC     H14R     HAL2     0.900000E-01   1.00800           0
     11335 MEMB     86       POPC     H14S     HAL2     0.900000E-01   1.00800           0
     11336 MEMB     86       POPC     C215     CTL2    -0.180000       12.0110           0
     11337 MEMB     86       POPC     H15R     HAL2     0.900000E-01   1.00800           0
     11338 MEMB     86       POPC     H15S     HAL2     0.900000E-01   1.00800           0
     11339 MEMB     86       POPC     C216     CTL2    -0.180000       12.0110           0
     11340 MEMB     86       POPC     H16R     HAL2     0.900000E-01   1.00800           0
     11341 MEMB     86       POPC     H16S     HAL2     0.900000E-01   1.00800           0
     11342 MEMB     86       POPC     C217     CTL2    -0.180000       12.0110           0
     11343 MEMB     86       POPC     H17R     HAL2     0.900000E-01   1.00800           0
     11344 MEMB     86       POPC     H17S     HAL2     0.900000E-01   1.00800           0
     11345 MEMB     86       POPC     C218     CTL3    -0.270000       12.0110           0
     11346 MEMB     86       POPC     H18R     HAL3     0.900000E-01   1.00800           0
     11347 MEMB     86       POPC     H18S     HAL3     0.900000E-01   1.00800           0
     11348 MEMB     86       POPC     H18T     HAL3     0.900000E-01   1.00800           0
     11349 MEMB     86       POPC     C33      CTL2    -0.180000       12.0110           0
     11350 MEMB     86       POPC     H3X      HAL2     0.900000E-01   1.00800           0
     11351 MEMB     86       POPC     H3Y      HAL2     0.900000E-01   1.00800           0
     11352 MEMB     86       POPC     C34      CTL2    -0.180000       12.0110           0
     11353 MEMB     86       POPC     H4X      HAL2     0.900000E-01   1.00800           0
     11354 MEMB     86       POPC     H4Y      HAL2     0.900000E-01   1.00800           0
     11355 MEMB     86       POPC     C35      CTL2    -0.180000       12.0110           0
     11356 MEMB     86       POPC     H5X      HAL2     0.900000E-01   1.00800           0
     11357 MEMB     86       POPC     H5Y      HAL2     0.900000E-01   1.00800           0
     11358 MEMB     86       POPC     C36      CTL2    -0.180000       12.0110           0
     11359 MEMB     86       POPC     H6X      HAL2     0.900000E-01   1.00800           0
     11360 MEMB     86       POPC     H6Y      HAL2     0.900000E-01   1.00800           0
     11361 MEMB     86       POPC     C37      CTL2    -0.180000       12.0110           0
     11362 MEMB     86       POPC     H7X      HAL2     0.900000E-01   1.00800           0
     11363 MEMB     86       POPC     H7Y      HAL2     0.900000E-01   1.00800           0
     11364 MEMB     86       POPC     C38      CTL2    -0.180000       12.0110           0
     11365 MEMB     86       POPC     H8X      HAL2     0.900000E-01   1.00800           0
     11366 MEMB     86       POPC     H8Y      HAL2     0.900000E-01   1.00800           0
     11367 MEMB     86       POPC     C39      CTL2    -0.180000       12.0110           0
     11368 MEMB     86       POPC     H9X      HAL2     0.900000E-01   1.00800           0
     11369 MEMB     86       POPC     H9Y      HAL2     0.900000E-01   1.00800           0
     11370 MEMB     86       POPC     C310     CTL2    -0.180000       12.0110           0
     11371 MEMB     86       POPC     H10X     HAL2     0.900000E-01   1.00800           0
     11372 MEMB     86       POPC     H10Y     HAL2     0.900000E-01   1.00800           0
     11373 MEMB     86       POPC     C311     CTL2    -0.180000       12.0110           0
     11374 MEMB     86       POPC     H11X     HAL2     0.900000E-01   1.00800           0
     11375 MEMB     86       POPC     H11Y     HAL2     0.900000E-01   1.00800           0
     11376 MEMB     86       POPC     C312     CTL2    -0.180000       12.0110           0
     11377 MEMB     86       POPC     H12X     HAL2     0.900000E-01   1.00800           0
     11378 MEMB     86       POPC     H12Y     HAL2     0.900000E-01   1.00800           0
     11379 MEMB     86       POPC     C313     CTL2    -0.180000       12.0110           0
     11380 MEMB     86       POPC     H13X     HAL2     0.900000E-01   1.00800           0
     11381 MEMB     86       POPC     H13Y     HAL2     0.900000E-01   1.00800           0
     11382 MEMB     86       POPC     C314     CTL2    -0.180000       12.0110           0
     11383 MEMB     86       POPC     H14X     HAL2     0.900000E-01   1.00800           0
     11384 MEMB     86       POPC     H14Y     HAL2     0.900000E-01   1.00800           0
     11385 MEMB     86       POPC     C315     CTL2    -0.180000       12.0110           0
     11386 MEMB     86       POPC     H15X     HAL2     0.900000E-01   1.00800           0
     11387 MEMB     86       POPC     H15Y     HAL2     0.900000E-01   1.00800           0
     11388 MEMB     86       POPC     C316     CTL3    -0.270000       12.0110           0
     11389 MEMB     86       POPC     H16X     HAL3     0.900000E-01   1.00800           0
     11390 MEMB     86       POPC     H16Y     HAL3     0.900000E-01   1.00800           0
     11391 MEMB     86       POPC     H16Z     HAL3     0.900000E-01   1.00800           0
     11392 MEMB     87       POPC     N        NTL     -0.600000       14.0070           0
     11393 MEMB     87       POPC     C12      CTL2    -0.100000       12.0110           0
     11394 MEMB     87       POPC     H12A     HL       0.250000       1.00800           0
     11395 MEMB     87       POPC     H12B     HL       0.250000       1.00800           0
     11396 MEMB     87       POPC     C13      CTL5    -0.350000       12.0110           0
     11397 MEMB     87       POPC     H13A     HL       0.250000       1.00800           0
     11398 MEMB     87       POPC     H13B     HL       0.250000       1.00800           0
     11399 MEMB     87       POPC     H13C     HL       0.250000       1.00800           0
     11400 MEMB     87       POPC     C14      CTL5    -0.350000       12.0110           0
     11401 MEMB     87       POPC     H14A     HL       0.250000       1.00800           0
     11402 MEMB     87       POPC     H14B     HL       0.250000       1.00800           0
     11403 MEMB     87       POPC     H14C     HL       0.250000       1.00800           0
     11404 MEMB     87       POPC     C15      CTL5    -0.350000       12.0110           0
     11405 MEMB     87       POPC     H15A     HL       0.250000       1.00800           0
     11406 MEMB     87       POPC     H15B     HL       0.250000       1.00800           0
     11407 MEMB     87       POPC     H15C     HL       0.250000       1.00800           0
     11408 MEMB     87       POPC     C11      CTL2    -0.800000E-01   12.0110           0
     11409 MEMB     87       POPC     H11A     HAL2     0.900000E-01   1.00800           0
     11410 MEMB     87       POPC     H11B     HAL2     0.900000E-01   1.00800           0
     11411 MEMB     87       POPC     P        PL        1.50000       30.9740           0
     11412 MEMB     87       POPC     O13      O2L     -0.780000       15.9994           0
     11413 MEMB     87       POPC     O14      O2L     -0.780000       15.9994           0
     11414 MEMB     87       POPC     O12      OSLP    -0.570000       15.9994           0
     11415 MEMB     87       POPC     O11      OSLP    -0.570000       15.9994           0
     11416 MEMB     87       POPC     C1       CTL2    -0.800000E-01   12.0110           0
     11417 MEMB     87       POPC     HA       HAL2     0.900000E-01   1.00800           0
     11418 MEMB     87       POPC     HB       HAL2     0.900000E-01   1.00800           0
     11419 MEMB     87       POPC     C2       CTL1     0.170000       12.0110           0
     11420 MEMB     87       POPC     HS       HAL1     0.900000E-01   1.00800           0
     11421 MEMB     87       POPC     O21      OSL     -0.490000       15.9994           0
     11422 MEMB     87       POPC     C21      CL       0.900000       12.0110           0
     11423 MEMB     87       POPC     O22      OBL     -0.630000       15.9994           0
     11424 MEMB     87       POPC     C22      CTL2    -0.220000       12.0110           0
     11425 MEMB     87       POPC     H2R      HAL2     0.900000E-01   1.00800           0
     11426 MEMB     87       POPC     H2S      HAL2     0.900000E-01   1.00800           0
     11427 MEMB     87       POPC     C3       CTL2     0.800000E-01   12.0110           0
     11428 MEMB     87       POPC     HX       HAL2     0.900000E-01   1.00800           0
     11429 MEMB     87       POPC     HY       HAL2     0.900000E-01   1.00800           0
     11430 MEMB     87       POPC     O31      OSL     -0.490000       15.9994           0
     11431 MEMB     87       POPC     C31      CL       0.900000       12.0110           0
     11432 MEMB     87       POPC     O32      OBL     -0.630000       15.9994           0
     11433 MEMB     87       POPC     C32      CTL2    -0.220000       12.0110           0
     11434 MEMB     87       POPC     H2X      HAL2     0.900000E-01   1.00800           0
     11435 MEMB     87       POPC     H2Y      HAL2     0.900000E-01   1.00800           0
     11436 MEMB     87       POPC     C23      CTL2    -0.180000       12.0110           0
     11437 MEMB     87       POPC     H3R      HAL2     0.900000E-01   1.00800           0
     11438 MEMB     87       POPC     H3S      HAL2     0.900000E-01   1.00800           0
     11439 MEMB     87       POPC     C24      CTL2    -0.180000       12.0110           0
     11440 MEMB     87       POPC     H4R      HAL2     0.900000E-01   1.00800           0
     11441 MEMB     87       POPC     H4S      HAL2     0.900000E-01   1.00800           0
     11442 MEMB     87       POPC     C25      CTL2    -0.180000       12.0110           0
     11443 MEMB     87       POPC     H5R      HAL2     0.900000E-01   1.00800           0
     11444 MEMB     87       POPC     H5S      HAL2     0.900000E-01   1.00800           0
     11445 MEMB     87       POPC     C26      CTL2    -0.180000       12.0110           0
     11446 MEMB     87       POPC     H6R      HAL2     0.900000E-01   1.00800           0
     11447 MEMB     87       POPC     H6S      HAL2     0.900000E-01   1.00800           0
     11448 MEMB     87       POPC     C27      CTL2    -0.180000       12.0110           0
     11449 MEMB     87       POPC     H7R      HAL2     0.900000E-01   1.00800           0
     11450 MEMB     87       POPC     H7S      HAL2     0.900000E-01   1.00800           0
     11451 MEMB     87       POPC     C28      CTL2    -0.180000       12.0110           0
     11452 MEMB     87       POPC     H8R      HAL2     0.900000E-01   1.00800           0
     11453 MEMB     87       POPC     H8S      HAL2     0.900000E-01   1.00800           0
     11454 MEMB     87       POPC     C29      CEL1    -0.150000       12.0110           0
     11455 MEMB     87       POPC     H91      HEL1     0.150000       1.00800           0
     11456 MEMB     87       POPC     C210     CEL1    -0.150000       12.0110           0
     11457 MEMB     87       POPC     H101     HEL1     0.150000       1.00800           0
     11458 MEMB     87       POPC     C211     CTL2    -0.180000       12.0110           0
     11459 MEMB     87       POPC     H11R     HAL2     0.900000E-01   1.00800           0
     11460 MEMB     87       POPC     H11S     HAL2     0.900000E-01   1.00800           0
     11461 MEMB     87       POPC     C212     CTL2    -0.180000       12.0110           0
     11462 MEMB     87       POPC     H12R     HAL2     0.900000E-01   1.00800           0
     11463 MEMB     87       POPC     H12S     HAL2     0.900000E-01   1.00800           0
     11464 MEMB     87       POPC     C213     CTL2    -0.180000       12.0110           0
     11465 MEMB     87       POPC     H13R     HAL2     0.900000E-01   1.00800           0
     11466 MEMB     87       POPC     H13S     HAL2     0.900000E-01   1.00800           0
     11467 MEMB     87       POPC     C214     CTL2    -0.180000       12.0110           0
     11468 MEMB     87       POPC     H14R     HAL2     0.900000E-01   1.00800           0
     11469 MEMB     87       POPC     H14S     HAL2     0.900000E-01   1.00800           0
     11470 MEMB     87       POPC     C215     CTL2    -0.180000       12.0110           0
     11471 MEMB     87       POPC     H15R     HAL2     0.900000E-01   1.00800           0
     11472 MEMB     87       POPC     H15S     HAL2     0.900000E-01   1.00800           0
     11473 MEMB     87       POPC     C216     CTL2    -0.180000       12.0110           0
     11474 MEMB     87       POPC     H16R     HAL2     0.900000E-01   1.00800           0
     11475 MEMB     87       POPC     H16S     HAL2     0.900000E-01   1.00800           0
     11476 MEMB     87       POPC     C217     CTL2    -0.180000       12.0110           0
     11477 MEMB     87       POPC     H17R     HAL2     0.900000E-01   1.00800           0
     11478 MEMB     87       POPC     H17S     HAL2     0.900000E-01   1.00800           0
     11479 MEMB     87       POPC     C218     CTL3    -0.270000       12.0110           0
     11480 MEMB     87       POPC     H18R     HAL3     0.900000E-01   1.00800           0
     11481 MEMB     87       POPC     H18S     HAL3     0.900000E-01   1.00800           0
     11482 MEMB     87       POPC     H18T     HAL3     0.900000E-01   1.00800           0
     11483 MEMB     87       POPC     C33      CTL2    -0.180000       12.0110           0
     11484 MEMB     87       POPC     H3X      HAL2     0.900000E-01   1.00800           0
     11485 MEMB     87       POPC     H3Y      HAL2     0.900000E-01   1.00800           0
     11486 MEMB     87       POPC     C34      CTL2    -0.180000       12.0110           0
     11487 MEMB     87       POPC     H4X      HAL2     0.900000E-01   1.00800           0
     11488 MEMB     87       POPC     H4Y      HAL2     0.900000E-01   1.00800           0
     11489 MEMB     87       POPC     C35      CTL2    -0.180000       12.0110           0
     11490 MEMB     87       POPC     H5X      HAL2     0.900000E-01   1.00800           0
     11491 MEMB     87       POPC     H5Y      HAL2     0.900000E-01   1.00800           0
     11492 MEMB     87       POPC     C36      CTL2    -0.180000       12.0110           0
     11493 MEMB     87       POPC     H6X      HAL2     0.900000E-01   1.00800           0
     11494 MEMB     87       POPC     H6Y      HAL2     0.900000E-01   1.00800           0
     11495 MEMB     87       POPC     C37      CTL2    -0.180000       12.0110           0
     11496 MEMB     87       POPC     H7X      HAL2     0.900000E-01   1.00800           0
     11497 MEMB     87       POPC     H7Y      HAL2     0.900000E-01   1.00800           0
     11498 MEMB     87       POPC     C38      CTL2    -0.180000       12.0110           0
     11499 MEMB     87       POPC     H8X      HAL2     0.900000E-01   1.00800           0
     11500 MEMB     87       POPC     H8Y      HAL2     0.900000E-01   1.00800           0
     11501 MEMB     87       POPC     C39      CTL2    -0.180000       12.0110           0
     11502 MEMB     87       POPC     H9X      HAL2     0.900000E-01   1.00800           0
     11503 MEMB     87       POPC     H9Y      HAL2     0.900000E-01   1.00800           0
     11504 MEMB     87       POPC     C310     CTL2    -0.180000       12.0110           0
     11505 MEMB     87       POPC     H10X     HAL2     0.900000E-01   1.00800           0
     11506 MEMB     87       POPC     H10Y     HAL2     0.900000E-01   1.00800           0
     11507 MEMB     87       POPC     C311     CTL2    -0.180000       12.0110           0
     11508 MEMB     87       POPC     H11X     HAL2     0.900000E-01   1.00800           0
     11509 MEMB     87       POPC     H11Y     HAL2     0.900000E-01   1.00800           0
     11510 MEMB     87       POPC     C312     CTL2    -0.180000       12.0110           0
     11511 MEMB     87       POPC     H12X     HAL2     0.900000E-01   1.00800           0
     11512 MEMB     87       POPC     H12Y     HAL2     0.900000E-01   1.00800           0
     11513 MEMB     87       POPC     C313     CTL2    -0.180000       12.0110           0
     11514 MEMB     87       POPC     H13X     HAL2     0.900000E-01   1.00800           0
     11515 MEMB     87       POPC     H13Y     HAL2     0.900000E-01   1.00800           0
     11516 MEMB     87       POPC     C314     CTL2    -0.180000       12.0110           0
     11517 MEMB     87       POPC     H14X     HAL2     0.900000E-01   1.00800           0
     11518 MEMB     87       POPC     H14Y     HAL2     0.900000E-01   1.00800           0
     11519 MEMB     87       POPC     C315     CTL2    -0.180000       12.0110           0
     11520 MEMB     87       POPC     H15X     HAL2     0.900000E-01   1.00800           0
     11521 MEMB     87       POPC     H15Y     HAL2     0.900000E-01   1.00800           0
     11522 MEMB     87       POPC     C316     CTL3    -0.270000       12.0110           0
     11523 MEMB     87       POPC     H16X     HAL3     0.900000E-01   1.00800           0
     11524 MEMB     87       POPC     H16Y     HAL3     0.900000E-01   1.00800           0
     11525 MEMB     87       POPC     H16Z     HAL3     0.900000E-01   1.00800           0
     11526 MEMB     88       POPC     N        NTL     -0.600000       14.0070           0
     11527 MEMB     88       POPC     C12      CTL2    -0.100000       12.0110           0
     11528 MEMB     88       POPC     H12A     HL       0.250000       1.00800           0
     11529 MEMB     88       POPC     H12B     HL       0.250000       1.00800           0
     11530 MEMB     88       POPC     C13      CTL5    -0.350000       12.0110           0
     11531 MEMB     88       POPC     H13A     HL       0.250000       1.00800           0
     11532 MEMB     88       POPC     H13B     HL       0.250000       1.00800           0
     11533 MEMB     88       POPC     H13C     HL       0.250000       1.00800           0
     11534 MEMB     88       POPC     C14      CTL5    -0.350000       12.0110           0
     11535 MEMB     88       POPC     H14A     HL       0.250000       1.00800           0
     11536 MEMB     88       POPC     H14B     HL       0.250000       1.00800           0
     11537 MEMB     88       POPC     H14C     HL       0.250000       1.00800           0
     11538 MEMB     88       POPC     C15      CTL5    -0.350000       12.0110           0
     11539 MEMB     88       POPC     H15A     HL       0.250000       1.00800           0
     11540 MEMB     88       POPC     H15B     HL       0.250000       1.00800           0
     11541 MEMB     88       POPC     H15C     HL       0.250000       1.00800           0
     11542 MEMB     88       POPC     C11      CTL2    -0.800000E-01   12.0110           0
     11543 MEMB     88       POPC     H11A     HAL2     0.900000E-01   1.00800           0
     11544 MEMB     88       POPC     H11B     HAL2     0.900000E-01   1.00800           0
     11545 MEMB     88       POPC     P        PL        1.50000       30.9740           0
     11546 MEMB     88       POPC     O13      O2L     -0.780000       15.9994           0
     11547 MEMB     88       POPC     O14      O2L     -0.780000       15.9994           0
     11548 MEMB     88       POPC     O12      OSLP    -0.570000       15.9994           0
     11549 MEMB     88       POPC     O11      OSLP    -0.570000       15.9994           0
     11550 MEMB     88       POPC     C1       CTL2    -0.800000E-01   12.0110           0
     11551 MEMB     88       POPC     HA       HAL2     0.900000E-01   1.00800           0
     11552 MEMB     88       POPC     HB       HAL2     0.900000E-01   1.00800           0
     11553 MEMB     88       POPC     C2       CTL1     0.170000       12.0110           0
     11554 MEMB     88       POPC     HS       HAL1     0.900000E-01   1.00800           0
     11555 MEMB     88       POPC     O21      OSL     -0.490000       15.9994           0
     11556 MEMB     88       POPC     C21      CL       0.900000       12.0110           0
     11557 MEMB     88       POPC     O22      OBL     -0.630000       15.9994           0
     11558 MEMB     88       POPC     C22      CTL2    -0.220000       12.0110           0
     11559 MEMB     88       POPC     H2R      HAL2     0.900000E-01   1.00800           0
     11560 MEMB     88       POPC     H2S      HAL2     0.900000E-01   1.00800           0
     11561 MEMB     88       POPC     C3       CTL2     0.800000E-01   12.0110           0
     11562 MEMB     88       POPC     HX       HAL2     0.900000E-01   1.00800           0
     11563 MEMB     88       POPC     HY       HAL2     0.900000E-01   1.00800           0
     11564 MEMB     88       POPC     O31      OSL     -0.490000       15.9994           0
     11565 MEMB     88       POPC     C31      CL       0.900000       12.0110           0
     11566 MEMB     88       POPC     O32      OBL     -0.630000       15.9994           0
     11567 MEMB     88       POPC     C32      CTL2    -0.220000       12.0110           0
     11568 MEMB     88       POPC     H2X      HAL2     0.900000E-01   1.00800           0
     11569 MEMB     88       POPC     H2Y      HAL2     0.900000E-01   1.00800           0
     11570 MEMB     88       POPC     C23      CTL2    -0.180000       12.0110           0
     11571 MEMB     88       POPC     H3R      HAL2     0.900000E-01   1.00800           0
     11572 MEMB     88       POPC     H3S      HAL2     0.900000E-01   1.00800           0
     11573 MEMB     88       POPC     C24      CTL2    -0.180000       12.0110           0
     11574 MEMB     88       POPC     H4R      HAL2     0.900000E-01   1.00800           0
     11575 MEMB     88       POPC     H4S      HAL2     0.900000E-01   1.00800           0
     11576 MEMB     88       POPC     C25      CTL2    -0.180000       12.0110           0
     11577 MEMB     88       POPC     H5R      HAL2     0.900000E-01   1.00800           0
     11578 MEMB     88       POPC     H5S      HAL2     0.900000E-01   1.00800           0
     11579 MEMB     88       POPC     C26      CTL2    -0.180000       12.0110           0
     11580 MEMB     88       POPC     H6R      HAL2     0.900000E-01   1.00800           0
     11581 MEMB     88       POPC     H6S      HAL2     0.900000E-01   1.00800           0
     11582 MEMB     88       POPC     C27      CTL2    -0.180000       12.0110           0
     11583 MEMB     88       POPC     H7R      HAL2     0.900000E-01   1.00800           0
     11584 MEMB     88       POPC     H7S      HAL2     0.900000E-01   1.00800           0
     11585 MEMB     88       POPC     C28      CTL2    -0.180000       12.0110           0
     11586 MEMB     88       POPC     H8R      HAL2     0.900000E-01   1.00800           0
     11587 MEMB     88       POPC     H8S      HAL2     0.900000E-01   1.00800           0
     11588 MEMB     88       POPC     C29      CEL1    -0.150000       12.0110           0
     11589 MEMB     88       POPC     H91      HEL1     0.150000       1.00800           0
     11590 MEMB     88       POPC     C210     CEL1    -0.150000       12.0110           0
     11591 MEMB     88       POPC     H101     HEL1     0.150000       1.00800           0
     11592 MEMB     88       POPC     C211     CTL2    -0.180000       12.0110           0
     11593 MEMB     88       POPC     H11R     HAL2     0.900000E-01   1.00800           0
     11594 MEMB     88       POPC     H11S     HAL2     0.900000E-01   1.00800           0
     11595 MEMB     88       POPC     C212     CTL2    -0.180000       12.0110           0
     11596 MEMB     88       POPC     H12R     HAL2     0.900000E-01   1.00800           0
     11597 MEMB     88       POPC     H12S     HAL2     0.900000E-01   1.00800           0
     11598 MEMB     88       POPC     C213     CTL2    -0.180000       12.0110           0
     11599 MEMB     88       POPC     H13R     HAL2     0.900000E-01   1.00800           0
     11600 MEMB     88       POPC     H13S     HAL2     0.900000E-01   1.00800           0
     11601 MEMB     88       POPC     C214     CTL2    -0.180000       12.0110           0
     11602 MEMB     88       POPC     H14R     HAL2     0.900000E-01   1.00800           0
     11603 MEMB     88       POPC     H14S     HAL2     0.900000E-01   1.00800           0
     11604 MEMB     88       POPC     C215     CTL2    -0.180000       12.0110           0
     11605 MEMB     88       POPC     H15R     HAL2     0.900000E-01   1.00800           0
     11606 MEMB     88       POPC     H15S     HAL2     0.900000E-01   1.00800           0
     11607 MEMB     88       POPC     C216     CTL2    -0.180000       12.0110           0
     11608 MEMB     88       POPC     H16R     HAL2     0.900000E-01   1.00800           0
     11609 MEMB     88       POPC     H16S     HAL2     0.900000E-01   1.00800           0
     11610 MEMB     88       POPC     C217     CTL2    -0.180000       12.0110           0
     11611 MEMB     88       POPC     H17R     HAL2     0.900000E-01   1.00800           0
     11612 MEMB     88       POPC     H17S     HAL2     0.900000E-01   1.00800           0
     11613 MEMB     88       POPC     C218     CTL3    -0.270000       12.0110           0
     11614 MEMB     88       POPC     H18R     HAL3     0.900000E-01   1.00800           0
     11615 MEMB     88       POPC     H18S     HAL3     0.900000E-01   1.00800           0
     11616 MEMB     88       POPC     H18T     HAL3     0.900000E-01   1.00800           0
     11617 MEMB     88       POPC     C33      CTL2    -0.180000       12.0110           0
     11618 MEMB     88       POPC     H3X      HAL2     0.900000E-01   1.00800           0
     11619 MEMB     88       POPC     H3Y      HAL2     0.900000E-01   1.00800           0
     11620 MEMB     88       POPC     C34      CTL2    -0.180000       12.0110           0
     11621 MEMB     88       POPC     H4X      HAL2     0.900000E-01   1.00800           0
     11622 MEMB     88       POPC     H4Y      HAL2     0.900000E-01   1.00800           0
     11623 MEMB     88       POPC     C35      CTL2    -0.180000       12.0110           0
     11624 MEMB     88       POPC     H5X      HAL2     0.900000E-01   1.00800           0
     11625 MEMB     88       POPC     H5Y      HAL2     0.900000E-01   1.00800           0
     11626 MEMB     88       POPC     C36      CTL2    -0.180000       12.0110           0
     11627 MEMB     88       POPC     H6X      HAL2     0.900000E-01   1.00800           0
     11628 MEMB     88       POPC     H6Y      HAL2     0.900000E-01   1.00800           0
     11629 MEMB     88       POPC     C37      CTL2    -0.180000       12.0110           0
     11630 MEMB     88       POPC     H7X      HAL2     0.900000E-01   1.00800           0
     11631 MEMB     88       POPC     H7Y      HAL2     0.900000E-01   1.00800           0
     11632 MEMB     88       POPC     C38      CTL2    -0.180000       12.0110           0
     11633 MEMB     88       POPC     H8X      HAL2     0.900000E-01   1.00800           0
     11634 MEMB     88       POPC     H8Y      HAL2     0.900000E-01   1.00800           0
     11635 MEMB     88       POPC     C39      CTL2    -0.180000       12.0110           0
     11636 MEMB     88       POPC     H9X      HAL2     0.900000E-01   1.00800           0
     11637 MEMB     88       POPC     H9Y      HAL2     0.900000E-01   1.00800           0
     11638 MEMB     88       POPC     C310     CTL2    -0.180000       12.0110           0
     11639 MEMB     88       POPC     H10X     HAL2     0.900000E-01   1.00800           0
     11640 MEMB     88       POPC     H10Y     HAL2     0.900000E-01   1.00800           0
     11641 MEMB     88       POPC     C311     CTL2    -0.180000       12.0110           0
     11642 MEMB     88       POPC     H11X     HAL2     0.900000E-01   1.00800           0
     11643 MEMB     88       POPC     H11Y     HAL2     0.900000E-01   1.00800           0
     11644 MEMB     88       POPC     C312     CTL2    -0.180000       12.0110           0
     11645 MEMB     88       POPC     H12X     HAL2     0.900000E-01   1.00800           0
     11646 MEMB     88       POPC     H12Y     HAL2     0.900000E-01   1.00800           0
     11647 MEMB     88       POPC     C313     CTL2    -0.180000       12.0110           0
     11648 MEMB     88       POPC     H13X     HAL2     0.900000E-01   1.00800           0
     11649 MEMB     88       POPC     H13Y     HAL2     0.900000E-01   1.00800           0
     11650 MEMB     88       POPC     C314     CTL2    -0.180000       12.0110           0
     11651 MEMB     88       POPC     H14X     HAL2     0.900000E-01   1.00800           0
     11652 MEMB     88       POPC     H14Y     HAL2     0.900000E-01   1.00800           0
     11653 MEMB     88       POPC     C315     CTL2    -0.180000       12.0110           0
     11654 MEMB     88       POPC     H15X     HAL2     0.900000E-01   1.00800           0
     11655 MEMB     88       POPC     H15Y     HAL2     0.900000E-01   1.00800           0
     11656 MEMB     88       POPC     C316     CTL3    -0.270000       12.0110           0
     11657 MEMB     88       POPC     H16X     HAL3     0.900000E-01   1.00800           0
     11658 MEMB     88       POPC     H16Y     HAL3     0.900000E-01   1.00800           0
     11659 MEMB     88       POPC     H16Z     HAL3     0.900000E-01   1.00800           0
     11660 MEMB     89       POPC     N        NTL     -0.600000       14.0070           0
     11661 MEMB     89       POPC     C12      CTL2    -0.100000       12.0110           0
     11662 MEMB     89       POPC     H12A     HL       0.250000       1.00800           0
     11663 MEMB     89       POPC     H12B     HL       0.250000       1.00800           0
     11664 MEMB     89       POPC     C13      CTL5    -0.350000       12.0110           0
     11665 MEMB     89       POPC     H13A     HL       0.250000       1.00800           0
     11666 MEMB     89       POPC     H13B     HL       0.250000       1.00800           0
     11667 MEMB     89       POPC     H13C     HL       0.250000       1.00800           0
     11668 MEMB     89       POPC     C14      CTL5    -0.350000       12.0110           0
     11669 MEMB     89       POPC     H14A     HL       0.250000       1.00800           0
     11670 MEMB     89       POPC     H14B     HL       0.250000       1.00800           0
     11671 MEMB     89       POPC     H14C     HL       0.250000       1.00800           0
     11672 MEMB     89       POPC     C15      CTL5    -0.350000       12.0110           0
     11673 MEMB     89       POPC     H15A     HL       0.250000       1.00800           0
     11674 MEMB     89       POPC     H15B     HL       0.250000       1.00800           0
     11675 MEMB     89       POPC     H15C     HL       0.250000       1.00800           0
     11676 MEMB     89       POPC     C11      CTL2    -0.800000E-01   12.0110           0
     11677 MEMB     89       POPC     H11A     HAL2     0.900000E-01   1.00800           0
     11678 MEMB     89       POPC     H11B     HAL2     0.900000E-01   1.00800           0
     11679 MEMB     89       POPC     P        PL        1.50000       30.9740           0
     11680 MEMB     89       POPC     O13      O2L     -0.780000       15.9994           0
     11681 MEMB     89       POPC     O14      O2L     -0.780000       15.9994           0
     11682 MEMB     89       POPC     O12      OSLP    -0.570000       15.9994           0
     11683 MEMB     89       POPC     O11      OSLP    -0.570000       15.9994           0
     11684 MEMB     89       POPC     C1       CTL2    -0.800000E-01   12.0110           0
     11685 MEMB     89       POPC     HA       HAL2     0.900000E-01   1.00800           0
     11686 MEMB     89       POPC     HB       HAL2     0.900000E-01   1.00800           0
     11687 MEMB     89       POPC     C2       CTL1     0.170000       12.0110           0
     11688 MEMB     89       POPC     HS       HAL1     0.900000E-01   1.00800           0
     11689 MEMB     89       POPC     O21      OSL     -0.490000       15.9994           0
     11690 MEMB     89       POPC     C21      CL       0.900000       12.0110           0
     11691 MEMB     89       POPC     O22      OBL     -0.630000       15.9994           0
     11692 MEMB     89       POPC     C22      CTL2    -0.220000       12.0110           0
     11693 MEMB     89       POPC     H2R      HAL2     0.900000E-01   1.00800           0
     11694 MEMB     89       POPC     H2S      HAL2     0.900000E-01   1.00800           0
     11695 MEMB     89       POPC     C3       CTL2     0.800000E-01   12.0110           0
     11696 MEMB     89       POPC     HX       HAL2     0.900000E-01   1.00800           0
     11697 MEMB     89       POPC     HY       HAL2     0.900000E-01   1.00800           0
     11698 MEMB     89       POPC     O31      OSL     -0.490000       15.9994           0
     11699 MEMB     89       POPC     C31      CL       0.900000       12.0110           0
     11700 MEMB     89       POPC     O32      OBL     -0.630000       15.9994           0
     11701 MEMB     89       POPC     C32      CTL2    -0.220000       12.0110           0
     11702 MEMB     89       POPC     H2X      HAL2     0.900000E-01   1.00800           0
     11703 MEMB     89       POPC     H2Y      HAL2     0.900000E-01   1.00800           0
     11704 MEMB     89       POPC     C23      CTL2    -0.180000       12.0110           0
     11705 MEMB     89       POPC     H3R      HAL2     0.900000E-01   1.00800           0
     11706 MEMB     89       POPC     H3S      HAL2     0.900000E-01   1.00800           0
     11707 MEMB     89       POPC     C24      CTL2    -0.180000       12.0110           0
     11708 MEMB     89       POPC     H4R      HAL2     0.900000E-01   1.00800           0
     11709 MEMB     89       POPC     H4S      HAL2     0.900000E-01   1.00800           0
     11710 MEMB     89       POPC     C25      CTL2    -0.180000       12.0110           0
     11711 MEMB     89       POPC     H5R      HAL2     0.900000E-01   1.00800           0
     11712 MEMB     89       POPC     H5S      HAL2     0.900000E-01   1.00800           0
     11713 MEMB     89       POPC     C26      CTL2    -0.180000       12.0110           0
     11714 MEMB     89       POPC     H6R      HAL2     0.900000E-01   1.00800           0
     11715 MEMB     89       POPC     H6S      HAL2     0.900000E-01   1.00800           0
     11716 MEMB     89       POPC     C27      CTL2    -0.180000       12.0110           0
     11717 MEMB     89       POPC     H7R      HAL2     0.900000E-01   1.00800           0
     11718 MEMB     89       POPC     H7S      HAL2     0.900000E-01   1.00800           0
     11719 MEMB     89       POPC     C28      CTL2    -0.180000       12.0110           0
     11720 MEMB     89       POPC     H8R      HAL2     0.900000E-01   1.00800           0
     11721 MEMB     89       POPC     H8S      HAL2     0.900000E-01   1.00800           0
     11722 MEMB     89       POPC     C29      CEL1    -0.150000       12.0110           0
     11723 MEMB     89       POPC     H91      HEL1     0.150000       1.00800           0
     11724 MEMB     89       POPC     C210     CEL1    -0.150000       12.0110           0
     11725 MEMB     89       POPC     H101     HEL1     0.150000       1.00800           0
     11726 MEMB     89       POPC     C211     CTL2    -0.180000       12.0110           0
     11727 MEMB     89       POPC     H11R     HAL2     0.900000E-01   1.00800           0
     11728 MEMB     89       POPC     H11S     HAL2     0.900000E-01   1.00800           0
     11729 MEMB     89       POPC     C212     CTL2    -0.180000       12.0110           0
     11730 MEMB     89       POPC     H12R     HAL2     0.900000E-01   1.00800           0
     11731 MEMB     89       POPC     H12S     HAL2     0.900000E-01   1.00800           0
     11732 MEMB     89       POPC     C213     CTL2    -0.180000       12.0110           0
     11733 MEMB     89       POPC     H13R     HAL2     0.900000E-01   1.00800           0
     11734 MEMB     89       POPC     H13S     HAL2     0.900000E-01   1.00800           0
     11735 MEMB     89       POPC     C214     CTL2    -0.180000       12.0110           0
     11736 MEMB     89       POPC     H14R     HAL2     0.900000E-01   1.00800           0
     11737 MEMB     89       POPC     H14S     HAL2     0.900000E-01   1.00800           0
     11738 MEMB     89       POPC     C215     CTL2    -0.180000       12.0110           0
     11739 MEMB     89       POPC     H15R     HAL2     0.900000E-01   1.00800           0
     11740 MEMB     89       POPC     H15S     HAL2     0.900000E-01   1.00800           0
     11741 MEMB     89       POPC     C216     CTL2    -0.180000       12.0110           0
     11742 MEMB     89       POPC     H16R     HAL2     0.900000E-01   1.00800           0
     11743 MEMB     89       POPC     H16S     HAL2     0.900000E-01   1.00800           0
     11744 MEMB     89       POPC     C217     CTL2    -0.180000       12.0110           0
     11745 MEMB     89       POPC     H17R     HAL2     0.900000E-01   1.00800           0
     11746 MEMB     89       POPC     H17S     HAL2     0.900000E-01   1.00800           0
     11747 MEMB     89       POPC     C218     CTL3    -0.270000       12.0110           0
     11748 MEMB     89       POPC     H18R     HAL3     0.900000E-01   1.00800           0
     11749 MEMB     89       POPC     H18S     HAL3     0.900000E-01   1.00800           0
     11750 MEMB     89       POPC     H18T     HAL3     0.900000E-01   1.00800           0
     11751 MEMB     89       POPC     C33      CTL2    -0.180000       12.0110           0
     11752 MEMB     89       POPC     H3X      HAL2     0.900000E-01   1.00800           0
     11753 MEMB     89       POPC     H3Y      HAL2     0.900000E-01   1.00800           0
     11754 MEMB     89       POPC     C34      CTL2    -0.180000       12.0110           0
     11755 MEMB     89       POPC     H4X      HAL2     0.900000E-01   1.00800           0
     11756 MEMB     89       POPC     H4Y      HAL2     0.900000E-01   1.00800           0
     11757 MEMB     89       POPC     C35      CTL2    -0.180000       12.0110           0
     11758 MEMB     89       POPC     H5X      HAL2     0.900000E-01   1.00800           0
     11759 MEMB     89       POPC     H5Y      HAL2     0.900000E-01   1.00800           0
     11760 MEMB     89       POPC     C36      CTL2    -0.180000       12.0110           0
     11761 MEMB     89       POPC     H6X      HAL2     0.900000E-01   1.00800           0
     11762 MEMB     89       POPC     H6Y      HAL2     0.900000E-01   1.00800           0
     11763 MEMB     89       POPC     C37      CTL2    -0.180000       12.0110           0
     11764 MEMB     89       POPC     H7X      HAL2     0.900000E-01   1.00800           0
     11765 MEMB     89       POPC     H7Y      HAL2     0.900000E-01   1.00800           0
     11766 MEMB     89       POPC     C38      CTL2    -0.180000       12.0110           0
     11767 MEMB     89       POPC     H8X      HAL2     0.900000E-01   1.00800           0
     11768 MEMB     89       POPC     H8Y      HAL2     0.900000E-01   1.00800           0
     11769 MEMB     89       POPC     C39      CTL2    -0.180000       12.0110           0
     11770 MEMB     89       POPC     H9X      HAL2     0.900000E-01   1.00800           0
     11771 MEMB     89       POPC     H9Y      HAL2     0.900000E-01   1.00800           0
     11772 MEMB     89       POPC     C310     CTL2    -0.180000       12.0110           0
     11773 MEMB     89       POPC     H10X     HAL2     0.900000E-01   1.00800           0
     11774 MEMB     89       POPC     H10Y     HAL2     0.900000E-01   1.00800           0
     11775 MEMB     89       POPC     C311     CTL2    -0.180000       12.0110           0
     11776 MEMB     89       POPC     H11X     HAL2     0.900000E-01   1.00800           0
     11777 MEMB     89       POPC     H11Y     HAL2     0.900000E-01   1.00800           0
     11778 MEMB     89       POPC     C312     CTL2    -0.180000       12.0110           0
     11779 MEMB     89       POPC     H12X     HAL2     0.900000E-01   1.00800           0
     11780 MEMB     89       POPC     H12Y     HAL2     0.900000E-01   1.00800           0
     11781 MEMB     89       POPC     C313     CTL2    -0.180000       12.0110           0
     11782 MEMB     89       POPC     H13X     HAL2     0.900000E-01   1.00800           0
     11783 MEMB     89       POPC     H13Y     HAL2     0.900000E-01   1.00800           0
     11784 MEMB     89       POPC     C314     CTL2    -0.180000       12.0110           0
     11785 MEMB     89       POPC     H14X     HAL2     0.900000E-01   1.00800           0
     11786 MEMB     89       POPC     H14Y     HAL2     0.900000E-01   1.00800           0
     11787 MEMB     89       POPC     C315     CTL2    -0.180000       12.0110           0
     11788 MEMB     89       POPC     H15X     HAL2     0.900000E-01   1.00800           0
     11789 MEMB     89       POPC     H15Y     HAL2     0.900000E-01   1.00800           0
     11790 MEMB     89       POPC     C316     CTL3    -0.270000       12.0110           0
     11791 MEMB     89       POPC     H16X     HAL3     0.900000E-01   1.00800           0
     11792 MEMB     89       POPC     H16Y     HAL3     0.900000E-01   1.00800           0
     11793 MEMB     89       POPC     H16Z     HAL3     0.900000E-01   1.00800           0
     11794 MEMB     90       POPC     N        NTL     -0.600000       14.0070           0
     11795 MEMB     90       POPC     C12      CTL2    -0.100000       12.0110           0
     11796 MEMB     90       POPC     H12A     HL       0.250000       1.00800           0
     11797 MEMB     90       POPC     H12B     HL       0.250000       1.00800           0
     11798 MEMB     90       POPC     C13      CTL5    -0.350000       12.0110           0
     11799 MEMB     90       POPC     H13A     HL       0.250000       1.00800           0
     11800 MEMB     90       POPC     H13B     HL       0.250000       1.00800           0
     11801 MEMB     90       POPC     H13C     HL       0.250000       1.00800           0
     11802 MEMB     90       POPC     C14      CTL5    -0.350000       12.0110           0
     11803 MEMB     90       POPC     H14A     HL       0.250000       1.00800           0
     11804 MEMB     90       POPC     H14B     HL       0.250000       1.00800           0
     11805 MEMB     90       POPC     H14C     HL       0.250000       1.00800           0
     11806 MEMB     90       POPC     C15      CTL5    -0.350000       12.0110           0
     11807 MEMB     90       POPC     H15A     HL       0.250000       1.00800           0
     11808 MEMB     90       POPC     H15B     HL       0.250000       1.00800           0
     11809 MEMB     90       POPC     H15C     HL       0.250000       1.00800           0
     11810 MEMB     90       POPC     C11      CTL2    -0.800000E-01   12.0110           0
     11811 MEMB     90       POPC     H11A     HAL2     0.900000E-01   1.00800           0
     11812 MEMB     90       POPC     H11B     HAL2     0.900000E-01   1.00800           0
     11813 MEMB     90       POPC     P        PL        1.50000       30.9740           0
     11814 MEMB     90       POPC     O13      O2L     -0.780000       15.9994           0
     11815 MEMB     90       POPC     O14      O2L     -0.780000       15.9994           0
     11816 MEMB     90       POPC     O12      OSLP    -0.570000       15.9994           0
     11817 MEMB     90       POPC     O11      OSLP    -0.570000       15.9994           0
     11818 MEMB     90       POPC     C1       CTL2    -0.800000E-01   12.0110           0
     11819 MEMB     90       POPC     HA       HAL2     0.900000E-01   1.00800           0
     11820 MEMB     90       POPC     HB       HAL2     0.900000E-01   1.00800           0
     11821 MEMB     90       POPC     C2       CTL1     0.170000       12.0110           0
     11822 MEMB     90       POPC     HS       HAL1     0.900000E-01   1.00800           0
     11823 MEMB     90       POPC     O21      OSL     -0.490000       15.9994           0
     11824 MEMB     90       POPC     C21      CL       0.900000       12.0110           0
     11825 MEMB     90       POPC     O22      OBL     -0.630000       15.9994           0
     11826 MEMB     90       POPC     C22      CTL2    -0.220000       12.0110           0
     11827 MEMB     90       POPC     H2R      HAL2     0.900000E-01   1.00800           0
     11828 MEMB     90       POPC     H2S      HAL2     0.900000E-01   1.00800           0
     11829 MEMB     90       POPC     C3       CTL2     0.800000E-01   12.0110           0
     11830 MEMB     90       POPC     HX       HAL2     0.900000E-01   1.00800           0
     11831 MEMB     90       POPC     HY       HAL2     0.900000E-01   1.00800           0
     11832 MEMB     90       POPC     O31      OSL     -0.490000       15.9994           0
     11833 MEMB     90       POPC     C31      CL       0.900000       12.0110           0
     11834 MEMB     90       POPC     O32      OBL     -0.630000       15.9994           0
     11835 MEMB     90       POPC     C32      CTL2    -0.220000       12.0110           0
     11836 MEMB     90       POPC     H2X      HAL2     0.900000E-01   1.00800           0
     11837 MEMB     90       POPC     H2Y      HAL2     0.900000E-01   1.00800           0
     11838 MEMB     90       POPC     C23      CTL2    -0.180000       12.0110           0
     11839 MEMB     90       POPC     H3R      HAL2     0.900000E-01   1.00800           0
     11840 MEMB     90       POPC     H3S      HAL2     0.900000E-01   1.00800           0
     11841 MEMB     90       POPC     C24      CTL2    -0.180000       12.0110           0
     11842 MEMB     90       POPC     H4R      HAL2     0.900000E-01   1.00800           0
     11843 MEMB     90       POPC     H4S      HAL2     0.900000E-01   1.00800           0
     11844 MEMB     90       POPC     C25      CTL2    -0.180000       12.0110           0
     11845 MEMB     90       POPC     H5R      HAL2     0.900000E-01   1.00800           0
     11846 MEMB     90       POPC     H5S      HAL2     0.900000E-01   1.00800           0
     11847 MEMB     90       POPC     C26      CTL2    -0.180000       12.0110           0
     11848 MEMB     90       POPC     H6R      HAL2     0.900000E-01   1.00800           0
     11849 MEMB     90       POPC     H6S      HAL2     0.900000E-01   1.00800           0
     11850 MEMB     90       POPC     C27      CTL2    -0.180000       12.0110           0
     11851 MEMB     90       POPC     H7R      HAL2     0.900000E-01   1.00800           0
     11852 MEMB     90       POPC     H7S      HAL2     0.900000E-01   1.00800           0
     11853 MEMB     90       POPC     C28      CTL2    -0.180000       12.0110           0
     11854 MEMB     90       POPC     H8R      HAL2     0.900000E-01   1.00800           0
     11855 MEMB     90       POPC     H8S      HAL2     0.900000E-01   1.00800           0
     11856 MEMB     90       POPC     C29      CEL1    -0.150000       12.0110           0
     11857 MEMB     90       POPC     H91      HEL1     0.150000       1.00800           0
     11858 MEMB     90       POPC     C210     CEL1    -0.150000       12.0110           0
     11859 MEMB     90       POPC     H101     HEL1     0.150000       1.00800           0
     11860 MEMB     90       POPC     C211     CTL2    -0.180000       12.0110           0
     11861 MEMB     90       POPC     H11R     HAL2     0.900000E-01   1.00800           0
     11862 MEMB     90       POPC     H11S     HAL2     0.900000E-01   1.00800           0
     11863 MEMB     90       POPC     C212     CTL2    -0.180000       12.0110           0
     11864 MEMB     90       POPC     H12R     HAL2     0.900000E-01   1.00800           0
     11865 MEMB     90       POPC     H12S     HAL2     0.900000E-01   1.00800           0
     11866 MEMB     90       POPC     C213     CTL2    -0.180000       12.0110           0
     11867 MEMB     90       POPC     H13R     HAL2     0.900000E-01   1.00800           0
     11868 MEMB     90       POPC     H13S     HAL2     0.900000E-01   1.00800           0
     11869 MEMB     90       POPC     C214     CTL2    -0.180000       12.0110           0
     11870 MEMB     90       POPC     H14R     HAL2     0.900000E-01   1.00800           0
     11871 MEMB     90       POPC     H14S     HAL2     0.900000E-01   1.00800           0
     11872 MEMB     90       POPC     C215     CTL2    -0.180000       12.0110           0
     11873 MEMB     90       POPC     H15R     HAL2     0.900000E-01   1.00800           0
     11874 MEMB     90       POPC     H15S     HAL2     0.900000E-01   1.00800           0
     11875 MEMB     90       POPC     C216     CTL2    -0.180000       12.0110           0
     11876 MEMB     90       POPC     H16R     HAL2     0.900000E-01   1.00800           0
     11877 MEMB     90       POPC     H16S     HAL2     0.900000E-01   1.00800           0
     11878 MEMB     90       POPC     C217     CTL2    -0.180000       12.0110           0
     11879 MEMB     90       POPC     H17R     HAL2     0.900000E-01   1.00800           0
     11880 MEMB     90       POPC     H17S     HAL2     0.900000E-01   1.00800           0
     11881 MEMB     90       POPC     C218     CTL3    -0.270000       12.0110           0
     11882 MEMB     90       POPC     H18R     HAL3     0.900000E-01   1.00800           0
     11883 MEMB     90       POPC     H18S     HAL3     0.900000E-01   1.00800           0
     11884 MEMB     90       POPC     H18T     HAL3     0.900000E-01   1.00800           0
     11885 MEMB     90       POPC     C33      CTL2    -0.180000       12.0110           0
     11886 MEMB     90       POPC     H3X      HAL2     0.900000E-01   1.00800           0
     11887 MEMB     90       POPC     H3Y      HAL2     0.900000E-01   1.00800           0
     11888 MEMB     90       POPC     C34      CTL2    -0.180000       12.0110           0
     11889 MEMB     90       POPC     H4X      HAL2     0.900000E-01   1.00800           0
     11890 MEMB     90       POPC     H4Y      HAL2     0.900000E-01   1.00800           0
     11891 MEMB     90       POPC     C35      CTL2    -0.180000       12.0110           0
     11892 MEMB     90       POPC     H5X      HAL2     0.900000E-01   1.00800           0
     11893 MEMB     90       POPC     H5Y      HAL2     0.900000E-01   1.00800           0
     11894 MEMB     90       POPC     C36      CTL2    -0.180000       12.0110           0
     11895 MEMB     90       POPC     H6X      HAL2     0.900000E-01   1.00800           0
     11896 MEMB     90       POPC     H6Y      HAL2     0.900000E-01   1.00800           0
     11897 MEMB     90       POPC     C37      CTL2    -0.180000       12.0110           0
     11898 MEMB     90       POPC     H7X      HAL2     0.900000E-01   1.00800           0
     11899 MEMB     90       POPC     H7Y      HAL2     0.900000E-01   1.00800           0
     11900 MEMB     90       POPC     C38      CTL2    -0.180000       12.0110           0
     11901 MEMB     90       POPC     H8X      HAL2     0.900000E-01   1.00800           0
     11902 MEMB     90       POPC     H8Y      HAL2     0.900000E-01   1.00800           0
     11903 MEMB     90       POPC     C39      CTL2    -0.180000       12.0110           0
     11904 MEMB     90       POPC     H9X      HAL2     0.900000E-01   1.00800           0
     11905 MEMB     90       POPC     H9Y      HAL2     0.900000E-01   1.00800           0
     11906 MEMB     90       POPC     C310     CTL2    -0.180000       12.0110           0
     11907 MEMB     90       POPC     H10X     HAL2     0.900000E-01   1.00800           0
     11908 MEMB     90       POPC     H10Y     HAL2     0.900000E-01   1.00800           0
     11909 MEMB     90       POPC     C311     CTL2    -0.180000       12.0110           0
     11910 MEMB     90       POPC     H11X     HAL2     0.900000E-01   1.00800           0
     11911 MEMB     90       POPC     H11Y     HAL2     0.900000E-01   1.00800           0
     11912 MEMB     90       POPC     C312     CTL2    -0.180000       12.0110           0
     11913 MEMB     90       POPC     H12X     HAL2     0.900000E-01   1.00800           0
     11914 MEMB     90       POPC     H12Y     HAL2     0.900000E-01   1.00800           0
     11915 MEMB     90       POPC     C313     CTL2    -0.180000       12.0110           0
     11916 MEMB     90       POPC     H13X     HAL2     0.900000E-01   1.00800           0
     11917 MEMB     90       POPC     H13Y     HAL2     0.900000E-01   1.00800           0
     11918 MEMB     90       POPC     C314     CTL2    -0.180000       12.0110           0
     11919 MEMB     90       POPC     H14X     HAL2     0.900000E-01   1.00800           0
     11920 MEMB     90       POPC     H14Y     HAL2     0.900000E-01   1.00800           0
     11921 MEMB     90       POPC     C315     CTL2    -0.180000       12.0110           0
     11922 MEMB     90       POPC     H15X     HAL2     0.900000E-01   1.00800           0
     11923 MEMB     90       POPC     H15Y     HAL2     0.900000E-01   1.00800           0
     11924 MEMB     90       POPC     C316     CTL3    -0.270000       12.0110           0
     11925 MEMB     90       POPC     H16X     HAL3     0.900000E-01   1.00800           0
     11926 MEMB     90       POPC     H16Y     HAL3     0.900000E-01   1.00800           0
     11927 MEMB     90       POPC     H16Z     HAL3     0.900000E-01   1.00800           0
     11928 MEMB     91       POPS     N        NH3L    -0.300000       14.0070           0
     11929 MEMB     91       POPS     HN1      HCL      0.330000       1.00800           0
     11930 MEMB     91       POPS     HN2      HCL      0.330000       1.00800           0
     11931 MEMB     91       POPS     HN3      HCL      0.330000       1.00800           0
     11932 MEMB     91       POPS     C12      CTL1     0.210000       12.0110           0
     11933 MEMB     91       POPS     H12A     HBL      0.100000       1.00800           0
     11934 MEMB     91       POPS     C13      CCL      0.340000       12.0110           0
     11935 MEMB     91       POPS     O13A     OCL     -0.670000       15.9994           0
     11936 MEMB     91       POPS     O13B     OCL     -0.670000       15.9994           0
     11937 MEMB     91       POPS     C11      CTL2    -0.800000E-01   12.0110           0
     11938 MEMB     91       POPS     H11A     HAL2     0.900000E-01   1.00800           0
     11939 MEMB     91       POPS     H11B     HAL2     0.900000E-01   1.00800           0
     11940 MEMB     91       POPS     P        PL        1.50000       30.9740           0
     11941 MEMB     91       POPS     O13      O2L     -0.780000       15.9994           0
     11942 MEMB     91       POPS     O14      O2L     -0.780000       15.9994           0
     11943 MEMB     91       POPS     O12      OSLP    -0.570000       15.9994           0
     11944 MEMB     91       POPS     O11      OSLP    -0.570000       15.9994           0
     11945 MEMB     91       POPS     C1       CTL2    -0.800000E-01   12.0110           0
     11946 MEMB     91       POPS     HA       HAL2     0.900000E-01   1.00800           0
     11947 MEMB     91       POPS     HB       HAL2     0.900000E-01   1.00800           0
     11948 MEMB     91       POPS     C2       CTL1     0.170000       12.0110           0
     11949 MEMB     91       POPS     HS       HAL1     0.900000E-01   1.00800           0
     11950 MEMB     91       POPS     O21      OSL     -0.490000       15.9994           0
     11951 MEMB     91       POPS     C21      CL       0.900000       12.0110           0
     11952 MEMB     91       POPS     O22      OBL     -0.630000       15.9994           0
     11953 MEMB     91       POPS     C22      CTL2    -0.220000       12.0110           0
     11954 MEMB     91       POPS     H2R      HAL2     0.900000E-01   1.00800           0
     11955 MEMB     91       POPS     H2S      HAL2     0.900000E-01   1.00800           0
     11956 MEMB     91       POPS     C3       CTL2     0.800000E-01   12.0110           0
     11957 MEMB     91       POPS     HX       HAL2     0.900000E-01   1.00800           0
     11958 MEMB     91       POPS     HY       HAL2     0.900000E-01   1.00800           0
     11959 MEMB     91       POPS     O31      OSL     -0.490000       15.9994           0
     11960 MEMB     91       POPS     C31      CL       0.900000       12.0110           0
     11961 MEMB     91       POPS     O32      OBL     -0.630000       15.9994           0
     11962 MEMB     91       POPS     C32      CTL2    -0.220000       12.0110           0
     11963 MEMB     91       POPS     H2X      HAL2     0.900000E-01   1.00800           0
     11964 MEMB     91       POPS     H2Y      HAL2     0.900000E-01   1.00800           0
     11965 MEMB     91       POPS     C23      CTL2    -0.180000       12.0110           0
     11966 MEMB     91       POPS     H3R      HAL2     0.900000E-01   1.00800           0
     11967 MEMB     91       POPS     H3S      HAL2     0.900000E-01   1.00800           0
     11968 MEMB     91       POPS     C24      CTL2    -0.180000       12.0110           0
     11969 MEMB     91       POPS     H4R      HAL2     0.900000E-01   1.00800           0
     11970 MEMB     91       POPS     H4S      HAL2     0.900000E-01   1.00800           0
     11971 MEMB     91       POPS     C25      CTL2    -0.180000       12.0110           0
     11972 MEMB     91       POPS     H5R      HAL2     0.900000E-01   1.00800           0
     11973 MEMB     91       POPS     H5S      HAL2     0.900000E-01   1.00800           0
     11974 MEMB     91       POPS     C26      CTL2    -0.180000       12.0110           0
     11975 MEMB     91       POPS     H6R      HAL2     0.900000E-01   1.00800           0
     11976 MEMB     91       POPS     H6S      HAL2     0.900000E-01   1.00800           0
     11977 MEMB     91       POPS     C27      CTL2    -0.180000       12.0110           0
     11978 MEMB     91       POPS     H7R      HAL2     0.900000E-01   1.00800           0
     11979 MEMB     91       POPS     H7S      HAL2     0.900000E-01   1.00800           0
     11980 MEMB     91       POPS     C28      CTL2    -0.180000       12.0110           0
     11981 MEMB     91       POPS     H8R      HAL2     0.900000E-01   1.00800           0
     11982 MEMB     91       POPS     H8S      HAL2     0.900000E-01   1.00800           0
     11983 MEMB     91       POPS     C29      CEL1    -0.150000       12.0110           0
     11984 MEMB     91       POPS     H91      HEL1     0.150000       1.00800           0
     11985 MEMB     91       POPS     C210     CEL1    -0.150000       12.0110           0
     11986 MEMB     91       POPS     H101     HEL1     0.150000       1.00800           0
     11987 MEMB     91       POPS     C211     CTL2    -0.180000       12.0110           0
     11988 MEMB     91       POPS     H11R     HAL2     0.900000E-01   1.00800           0
     11989 MEMB     91       POPS     H11S     HAL2     0.900000E-01   1.00800           0
     11990 MEMB     91       POPS     C212     CTL2    -0.180000       12.0110           0
     11991 MEMB     91       POPS     H12R     HAL2     0.900000E-01   1.00800           0
     11992 MEMB     91       POPS     H12S     HAL2     0.900000E-01   1.00800           0
     11993 MEMB     91       POPS     C213     CTL2    -0.180000       12.0110           0
     11994 MEMB     91       POPS     H13R     HAL2     0.900000E-01   1.00800           0
     11995 MEMB     91       POPS     H13S     HAL2     0.900000E-01   1.00800           0
     11996 MEMB     91       POPS     C214     CTL2    -0.180000       12.0110           0
     11997 MEMB     91       POPS     H14R     HAL2     0.900000E-01   1.00800           0
     11998 MEMB     91       POPS     H14S     HAL2     0.900000E-01   1.00800           0
     11999 MEMB     91       POPS     C215     CTL2    -0.180000       12.0110           0
     12000 MEMB     91       POPS     H15R     HAL2     0.900000E-01   1.00800           0
     12001 MEMB     91       POPS     H15S     HAL2     0.900000E-01   1.00800           0
     12002 MEMB     91       POPS     C216     CTL2    -0.180000       12.0110           0
     12003 MEMB     91       POPS     H16R     HAL2     0.900000E-01   1.00800           0
     12004 MEMB     91       POPS     H16S     HAL2     0.900000E-01   1.00800           0
     12005 MEMB     91       POPS     C217     CTL2    -0.180000       12.0110           0
     12006 MEMB     91       POPS     H17R     HAL2     0.900000E-01   1.00800           0
     12007 MEMB     91       POPS     H17S     HAL2     0.900000E-01   1.00800           0
     12008 MEMB     91       POPS     C218     CTL3    -0.270000       12.0110           0
     12009 MEMB     91       POPS     H18R     HAL3     0.900000E-01   1.00800           0
     12010 MEMB     91       POPS     H18S     HAL3     0.900000E-01   1.00800           0
     12011 MEMB     91       POPS     H18T     HAL3     0.900000E-01   1.00800           0
     12012 MEMB     91       POPS     C33      CTL2    -0.180000       12.0110           0
     12013 MEMB     91       POPS     H3X      HAL2     0.900000E-01   1.00800           0
     12014 MEMB     91       POPS     H3Y      HAL2     0.900000E-01   1.00800           0
     12015 MEMB     91       POPS     C34      CTL2    -0.180000       12.0110           0
     12016 MEMB     91       POPS     H4X      HAL2     0.900000E-01   1.00800           0
     12017 MEMB     91       POPS     H4Y      HAL2     0.900000E-01   1.00800           0
     12018 MEMB     91       POPS     C35      CTL2    -0.180000       12.0110           0
     12019 MEMB     91       POPS     H5X      HAL2     0.900000E-01   1.00800           0
     12020 MEMB     91       POPS     H5Y      HAL2     0.900000E-01   1.00800           0
     12021 MEMB     91       POPS     C36      CTL2    -0.180000       12.0110           0
     12022 MEMB     91       POPS     H6X      HAL2     0.900000E-01   1.00800           0
     12023 MEMB     91       POPS     H6Y      HAL2     0.900000E-01   1.00800           0
     12024 MEMB     91       POPS     C37      CTL2    -0.180000       12.0110           0
     12025 MEMB     91       POPS     H7X      HAL2     0.900000E-01   1.00800           0
     12026 MEMB     91       POPS     H7Y      HAL2     0.900000E-01   1.00800           0
     12027 MEMB     91       POPS     C38      CTL2    -0.180000       12.0110           0
     12028 MEMB     91       POPS     H8X      HAL2     0.900000E-01   1.00800           0
     12029 MEMB     91       POPS     H8Y      HAL2     0.900000E-01   1.00800           0
     12030 MEMB     91       POPS     C39      CTL2    -0.180000       12.0110           0
     12031 MEMB     91       POPS     H9X      HAL2     0.900000E-01   1.00800           0
     12032 MEMB     91       POPS     H9Y      HAL2     0.900000E-01   1.00800           0
     12033 MEMB     91       POPS     C310     CTL2    -0.180000       12.0110           0
     12034 MEMB     91       POPS     H10X     HAL2     0.900000E-01   1.00800           0
     12035 MEMB     91       POPS     H10Y     HAL2     0.900000E-01   1.00800           0
     12036 MEMB     91       POPS     C311     CTL2    -0.180000       12.0110           0
     12037 MEMB     91       POPS     H11X     HAL2     0.900000E-01   1.00800           0
     12038 MEMB     91       POPS     H11Y     HAL2     0.900000E-01   1.00800           0
     12039 MEMB     91       POPS     C312     CTL2    -0.180000       12.0110           0
     12040 MEMB     91       POPS     H12X     HAL2     0.900000E-01   1.00800           0
     12041 MEMB     91       POPS     H12Y     HAL2     0.900000E-01   1.00800           0
     12042 MEMB     91       POPS     C313     CTL2    -0.180000       12.0110           0
     12043 MEMB     91       POPS     H13X     HAL2     0.900000E-01   1.00800           0
     12044 MEMB     91       POPS     H13Y     HAL2     0.900000E-01   1.00800           0
     12045 MEMB     91       POPS     C314     CTL2    -0.180000       12.0110           0
     12046 MEMB     91       POPS     H14X     HAL2     0.900000E-01   1.00800           0
     12047 MEMB     91       POPS     H14Y     HAL2     0.900000E-01   1.00800           0
     12048 MEMB     91       POPS     C315     CTL2    -0.180000       12.0110           0
     12049 MEMB     91       POPS     H15X     HAL2     0.900000E-01   1.00800           0
     12050 MEMB     91       POPS     H15Y     HAL2     0.900000E-01   1.00800           0
     12051 MEMB     91       POPS     C316     CTL3    -0.270000       12.0110           0
     12052 MEMB     91       POPS     H16X     HAL3     0.900000E-01   1.00800           0
     12053 MEMB     91       POPS     H16Y     HAL3     0.900000E-01   1.00800           0
     12054 MEMB     91       POPS     H16Z     HAL3     0.900000E-01   1.00800           0
     12055 MEMB     92       POPS     N        NH3L    -0.300000       14.0070           0
     12056 MEMB     92       POPS     HN1      HCL      0.330000       1.00800           0
     12057 MEMB     92       POPS     HN2      HCL      0.330000       1.00800           0
     12058 MEMB     92       POPS     HN3      HCL      0.330000       1.00800           0
     12059 MEMB     92       POPS     C12      CTL1     0.210000       12.0110           0
     12060 MEMB     92       POPS     H12A     HBL      0.100000       1.00800           0
     12061 MEMB     92       POPS     C13      CCL      0.340000       12.0110           0
     12062 MEMB     92       POPS     O13A     OCL     -0.670000       15.9994           0
     12063 MEMB     92       POPS     O13B     OCL     -0.670000       15.9994           0
     12064 MEMB     92       POPS     C11      CTL2    -0.800000E-01   12.0110           0
     12065 MEMB     92       POPS     H11A     HAL2     0.900000E-01   1.00800           0
     12066 MEMB     92       POPS     H11B     HAL2     0.900000E-01   1.00800           0
     12067 MEMB     92       POPS     P        PL        1.50000       30.9740           0
     12068 MEMB     92       POPS     O13      O2L     -0.780000       15.9994           0
     12069 MEMB     92       POPS     O14      O2L     -0.780000       15.9994           0
     12070 MEMB     92       POPS     O12      OSLP    -0.570000       15.9994           0
     12071 MEMB     92       POPS     O11      OSLP    -0.570000       15.9994           0
     12072 MEMB     92       POPS     C1       CTL2    -0.800000E-01   12.0110           0
     12073 MEMB     92       POPS     HA       HAL2     0.900000E-01   1.00800           0
     12074 MEMB     92       POPS     HB       HAL2     0.900000E-01   1.00800           0
     12075 MEMB     92       POPS     C2       CTL1     0.170000       12.0110           0
     12076 MEMB     92       POPS     HS       HAL1     0.900000E-01   1.00800           0
     12077 MEMB     92       POPS     O21      OSL     -0.490000       15.9994           0
     12078 MEMB     92       POPS     C21      CL       0.900000       12.0110           0
     12079 MEMB     92       POPS     O22      OBL     -0.630000       15.9994           0
     12080 MEMB     92       POPS     C22      CTL2    -0.220000       12.0110           0
     12081 MEMB     92       POPS     H2R      HAL2     0.900000E-01   1.00800           0
     12082 MEMB     92       POPS     H2S      HAL2     0.900000E-01   1.00800           0
     12083 MEMB     92       POPS     C3       CTL2     0.800000E-01   12.0110           0
     12084 MEMB     92       POPS     HX       HAL2     0.900000E-01   1.00800           0
     12085 MEMB     92       POPS     HY       HAL2     0.900000E-01   1.00800           0
     12086 MEMB     92       POPS     O31      OSL     -0.490000       15.9994           0
     12087 MEMB     92       POPS     C31      CL       0.900000       12.0110           0
     12088 MEMB     92       POPS     O32      OBL     -0.630000       15.9994           0
     12089 MEMB     92       POPS     C32      CTL2    -0.220000       12.0110           0
     12090 MEMB     92       POPS     H2X      HAL2     0.900000E-01   1.00800           0
     12091 MEMB     92       POPS     H2Y      HAL2     0.900000E-01   1.00800           0
     12092 MEMB     92       POPS     C23      CTL2    -0.180000       12.0110           0
     12093 MEMB     92       POPS     H3R      HAL2     0.900000E-01   1.00800           0
     12094 MEMB     92       POPS     H3S      HAL2     0.900000E-01   1.00800           0
     12095 MEMB     92       POPS     C24      CTL2    -0.180000       12.0110           0
     12096 MEMB     92       POPS     H4R      HAL2     0.900000E-01   1.00800           0
     12097 MEMB     92       POPS     H4S      HAL2     0.900000E-01   1.00800           0
     12098 MEMB     92       POPS     C25      CTL2    -0.180000       12.0110           0
     12099 MEMB     92       POPS     H5R      HAL2     0.900000E-01   1.00800           0
     12100 MEMB     92       POPS     H5S      HAL2     0.900000E-01   1.00800           0
     12101 MEMB     92       POPS     C26      CTL2    -0.180000       12.0110           0
     12102 MEMB     92       POPS     H6R      HAL2     0.900000E-01   1.00800           0
     12103 MEMB     92       POPS     H6S      HAL2     0.900000E-01   1.00800           0
     12104 MEMB     92       POPS     C27      CTL2    -0.180000       12.0110           0
     12105 MEMB     92       POPS     H7R      HAL2     0.900000E-01   1.00800           0
     12106 MEMB     92       POPS     H7S      HAL2     0.900000E-01   1.00800           0
     12107 MEMB     92       POPS     C28      CTL2    -0.180000       12.0110           0
     12108 MEMB     92       POPS     H8R      HAL2     0.900000E-01   1.00800           0
     12109 MEMB     92       POPS     H8S      HAL2     0.900000E-01   1.00800           0
     12110 MEMB     92       POPS     C29      CEL1    -0.150000       12.0110           0
     12111 MEMB     92       POPS     H91      HEL1     0.150000       1.00800           0
     12112 MEMB     92       POPS     C210     CEL1    -0.150000       12.0110           0
     12113 MEMB     92       POPS     H101     HEL1     0.150000       1.00800           0
     12114 MEMB     92       POPS     C211     CTL2    -0.180000       12.0110           0
     12115 MEMB     92       POPS     H11R     HAL2     0.900000E-01   1.00800           0
     12116 MEMB     92       POPS     H11S     HAL2     0.900000E-01   1.00800           0
     12117 MEMB     92       POPS     C212     CTL2    -0.180000       12.0110           0
     12118 MEMB     92       POPS     H12R     HAL2     0.900000E-01   1.00800           0
     12119 MEMB     92       POPS     H12S     HAL2     0.900000E-01   1.00800           0
     12120 MEMB     92       POPS     C213     CTL2    -0.180000       12.0110           0
     12121 MEMB     92       POPS     H13R     HAL2     0.900000E-01   1.00800           0
     12122 MEMB     92       POPS     H13S     HAL2     0.900000E-01   1.00800           0
     12123 MEMB     92       POPS     C214     CTL2    -0.180000       12.0110           0
     12124 MEMB     92       POPS     H14R     HAL2     0.900000E-01   1.00800           0
     12125 MEMB     92       POPS     H14S     HAL2     0.900000E-01   1.00800           0
     12126 MEMB     92       POPS     C215     CTL2    -0.180000       12.0110           0
     12127 MEMB     92       POPS     H15R     HAL2     0.900000E-01   1.00800           0
     12128 MEMB     92       POPS     H15S     HAL2     0.900000E-01   1.00800           0
     12129 MEMB     92       POPS     C216     CTL2    -0.180000       12.0110           0
     12130 MEMB     92       POPS     H16R     HAL2     0.900000E-01   1.00800           0
     12131 MEMB     92       POPS     H16S     HAL2     0.900000E-01   1.00800           0
     12132 MEMB     92       POPS     C217     CTL2    -0.180000       12.0110           0
     12133 MEMB     92       POPS     H17R     HAL2     0.900000E-01   1.00800           0
     12134 MEMB     92       POPS     H17S     HAL2     0.900000E-01   1.00800           0
     12135 MEMB     92       POPS     C218     CTL3    -0.270000       12.0110           0
     12136 MEMB     92       POPS     H18R     HAL3     0.900000E-01   1.00800           0
     12137 MEMB     92       POPS     H18S     HAL3     0.900000E-01   1.00800           0
     12138 MEMB     92       POPS     H18T     HAL3     0.900000E-01   1.00800           0
     12139 MEMB     92       POPS     C33      CTL2    -0.180000       12.0110           0
     12140 MEMB     92       POPS     H3X      HAL2     0.900000E-01   1.00800           0
     12141 MEMB     92       POPS     H3Y      HAL2     0.900000E-01   1.00800           0
     12142 MEMB     92       POPS     C34      CTL2    -0.180000       12.0110           0
     12143 MEMB     92       POPS     H4X      HAL2     0.900000E-01   1.00800           0
     12144 MEMB     92       POPS     H4Y      HAL2     0.900000E-01   1.00800           0
     12145 MEMB     92       POPS     C35      CTL2    -0.180000       12.0110           0
     12146 MEMB     92       POPS     H5X      HAL2     0.900000E-01   1.00800           0
     12147 MEMB     92       POPS     H5Y      HAL2     0.900000E-01   1.00800           0
     12148 MEMB     92       POPS     C36      CTL2    -0.180000       12.0110           0
     12149 MEMB     92       POPS     H6X      HAL2     0.900000E-01   1.00800           0
     12150 MEMB     92       POPS     H6Y      HAL2     0.900000E-01   1.00800           0
     12151 MEMB     92       POPS     C37      CTL2    -0.180000       12.0110           0
     12152 MEMB     92       POPS     H7X      HAL2     0.900000E-01   1.00800           0
     12153 MEMB     92       POPS     H7Y      HAL2     0.900000E-01   1.00800           0
     12154 MEMB     92       POPS     C38      CTL2    -0.180000       12.0110           0
     12155 MEMB     92       POPS     H8X      HAL2     0.900000E-01   1.00800           0
     12156 MEMB     92       POPS     H8Y      HAL2     0.900000E-01   1.00800           0
     12157 MEMB     92       POPS     C39      CTL2    -0.180000       12.0110           0
     12158 MEMB     92       POPS     H9X      HAL2     0.900000E-01   1.00800           0
     12159 MEMB     92       POPS     H9Y      HAL2     0.900000E-01   1.00800           0
     12160 MEMB     92       POPS     C310     CTL2    -0.180000       12.0110           0
     12161 MEMB     92       POPS     H10X     HAL2     0.900000E-01   1.00800           0
     12162 MEMB     92       POPS     H10Y     HAL2     0.900000E-01   1.00800           0
     12163 MEMB     92       POPS     C311     CTL2    -0.180000       12.0110           0
     12164 MEMB     92       POPS     H11X     HAL2     0.900000E-01   1.00800           0
     12165 MEMB     92       POPS     H11Y     HAL2     0.900000E-01   1.00800           0
     12166 MEMB     92       POPS     C312     CTL2    -0.180000       12.0110           0
     12167 MEMB     92       POPS     H12X     HAL2     0.900000E-01   1.00800           0
     12168 MEMB     92       POPS     H12Y     HAL2     0.900000E-01   1.00800           0
     12169 MEMB     92       POPS     C313     CTL2    -0.180000       12.0110           0
     12170 MEMB     92       POPS     H13X     HAL2     0.900000E-01   1.00800           0
     12171 MEMB     92       POPS     H13Y     HAL2     0.900000E-01   1.00800           0
     12172 MEMB     92       POPS     C314     CTL2    -0.180000       12.0110           0
     12173 MEMB     92       POPS     H14X     HAL2     0.900000E-01   1.00800           0
     12174 MEMB     92       POPS     H14Y     HAL2     0.900000E-01   1.00800           0
     12175 MEMB     92       POPS     C315     CTL2    -0.180000       12.0110           0
     12176 MEMB     92       POPS     H15X     HAL2     0.900000E-01   1.00800           0
     12177 MEMB     92       POPS     H15Y     HAL2     0.900000E-01   1.00800           0
     12178 MEMB     92       POPS     C316     CTL3    -0.270000       12.0110           0
     12179 MEMB     92       POPS     H16X     HAL3     0.900000E-01   1.00800           0
     12180 MEMB     92       POPS     H16Y     HAL3     0.900000E-01   1.00800           0
     12181 MEMB     92       POPS     H16Z     HAL3     0.900000E-01   1.00800           0
     12182 MEMB     93       POPC     N        NTL     -0.600000       14.0070           0
     12183 MEMB     93       POPC     C12      CTL2    -0.100000       12.0110           0
     12184 MEMB     93       POPC     H12A     HL       0.250000       1.00800           0
     12185 MEMB     93       POPC     H12B     HL       0.250000       1.00800           0
     12186 MEMB     93       POPC     C13      CTL5    -0.350000       12.0110           0
     12187 MEMB     93       POPC     H13A     HL       0.250000       1.00800           0
     12188 MEMB     93       POPC     H13B     HL       0.250000       1.00800           0
     12189 MEMB     93       POPC     H13C     HL       0.250000       1.00800           0
     12190 MEMB     93       POPC     C14      CTL5    -0.350000       12.0110           0
     12191 MEMB     93       POPC     H14A     HL       0.250000       1.00800           0
     12192 MEMB     93       POPC     H14B     HL       0.250000       1.00800           0
     12193 MEMB     93       POPC     H14C     HL       0.250000       1.00800           0
     12194 MEMB     93       POPC     C15      CTL5    -0.350000       12.0110           0
     12195 MEMB     93       POPC     H15A     HL       0.250000       1.00800           0
     12196 MEMB     93       POPC     H15B     HL       0.250000       1.00800           0
     12197 MEMB     93       POPC     H15C     HL       0.250000       1.00800           0
     12198 MEMB     93       POPC     C11      CTL2    -0.800000E-01   12.0110           0
     12199 MEMB     93       POPC     H11A     HAL2     0.900000E-01   1.00800           0
     12200 MEMB     93       POPC     H11B     HAL2     0.900000E-01   1.00800           0
     12201 MEMB     93       POPC     P        PL        1.50000       30.9740           0
     12202 MEMB     93       POPC     O13      O2L     -0.780000       15.9994           0
     12203 MEMB     93       POPC     O14      O2L     -0.780000       15.9994           0
     12204 MEMB     93       POPC     O12      OSLP    -0.570000       15.9994           0
     12205 MEMB     93       POPC     O11      OSLP    -0.570000       15.9994           0
     12206 MEMB     93       POPC     C1       CTL2    -0.800000E-01   12.0110           0
     12207 MEMB     93       POPC     HA       HAL2     0.900000E-01   1.00800           0
     12208 MEMB     93       POPC     HB       HAL2     0.900000E-01   1.00800           0
     12209 MEMB     93       POPC     C2       CTL1     0.170000       12.0110           0
     12210 MEMB     93       POPC     HS       HAL1     0.900000E-01   1.00800           0
     12211 MEMB     93       POPC     O21      OSL     -0.490000       15.9994           0
     12212 MEMB     93       POPC     C21      CL       0.900000       12.0110           0
     12213 MEMB     93       POPC     O22      OBL     -0.630000       15.9994           0
     12214 MEMB     93       POPC     C22      CTL2    -0.220000       12.0110           0
     12215 MEMB     93       POPC     H2R      HAL2     0.900000E-01   1.00800           0
     12216 MEMB     93       POPC     H2S      HAL2     0.900000E-01   1.00800           0
     12217 MEMB     93       POPC     C3       CTL2     0.800000E-01   12.0110           0
     12218 MEMB     93       POPC     HX       HAL2     0.900000E-01   1.00800           0
     12219 MEMB     93       POPC     HY       HAL2     0.900000E-01   1.00800           0
     12220 MEMB     93       POPC     O31      OSL     -0.490000       15.9994           0
     12221 MEMB     93       POPC     C31      CL       0.900000       12.0110           0
     12222 MEMB     93       POPC     O32      OBL     -0.630000       15.9994           0
     12223 MEMB     93       POPC     C32      CTL2    -0.220000       12.0110           0
     12224 MEMB     93       POPC     H2X      HAL2     0.900000E-01   1.00800           0
     12225 MEMB     93       POPC     H2Y      HAL2     0.900000E-01   1.00800           0
     12226 MEMB     93       POPC     C23      CTL2    -0.180000       12.0110           0
     12227 MEMB     93       POPC     H3R      HAL2     0.900000E-01   1.00800           0
     12228 MEMB     93       POPC     H3S      HAL2     0.900000E-01   1.00800           0
     12229 MEMB     93       POPC     C24      CTL2    -0.180000       12.0110           0
     12230 MEMB     93       POPC     H4R      HAL2     0.900000E-01   1.00800           0
     12231 MEMB     93       POPC     H4S      HAL2     0.900000E-01   1.00800           0
     12232 MEMB     93       POPC     C25      CTL2    -0.180000       12.0110           0
     12233 MEMB     93       POPC     H5R      HAL2     0.900000E-01   1.00800           0
     12234 MEMB     93       POPC     H5S      HAL2     0.900000E-01   1.00800           0
     12235 MEMB     93       POPC     C26      CTL2    -0.180000       12.0110           0
     12236 MEMB     93       POPC     H6R      HAL2     0.900000E-01   1.00800           0
     12237 MEMB     93       POPC     H6S      HAL2     0.900000E-01   1.00800           0
     12238 MEMB     93       POPC     C27      CTL2    -0.180000       12.0110           0
     12239 MEMB     93       POPC     H7R      HAL2     0.900000E-01   1.00800           0
     12240 MEMB     93       POPC     H7S      HAL2     0.900000E-01   1.00800           0
     12241 MEMB     93       POPC     C28      CTL2    -0.180000       12.0110           0
     12242 MEMB     93       POPC     H8R      HAL2     0.900000E-01   1.00800           0
     12243 MEMB     93       POPC     H8S      HAL2     0.900000E-01   1.00800           0
     12244 MEMB     93       POPC     C29      CEL1    -0.150000       12.0110           0
     12245 MEMB     93       POPC     H91      HEL1     0.150000       1.00800           0
     12246 MEMB     93       POPC     C210     CEL1    -0.150000       12.0110           0
     12247 MEMB     93       POPC     H101     HEL1     0.150000       1.00800           0
     12248 MEMB     93       POPC     C211     CTL2    -0.180000       12.0110           0
     12249 MEMB     93       POPC     H11R     HAL2     0.900000E-01   1.00800           0
     12250 MEMB     93       POPC     H11S     HAL2     0.900000E-01   1.00800           0
     12251 MEMB     93       POPC     C212     CTL2    -0.180000       12.0110           0
     12252 MEMB     93       POPC     H12R     HAL2     0.900000E-01   1.00800           0
     12253 MEMB     93       POPC     H12S     HAL2     0.900000E-01   1.00800           0
     12254 MEMB     93       POPC     C213     CTL2    -0.180000       12.0110           0
     12255 MEMB     93       POPC     H13R     HAL2     0.900000E-01   1.00800           0
     12256 MEMB     93       POPC     H13S     HAL2     0.900000E-01   1.00800           0
     12257 MEMB     93       POPC     C214     CTL2    -0.180000       12.0110           0
     12258 MEMB     93       POPC     H14R     HAL2     0.900000E-01   1.00800           0
     12259 MEMB     93       POPC     H14S     HAL2     0.900000E-01   1.00800           0
     12260 MEMB     93       POPC     C215     CTL2    -0.180000       12.0110           0
     12261 MEMB     93       POPC     H15R     HAL2     0.900000E-01   1.00800           0
     12262 MEMB     93       POPC     H15S     HAL2     0.900000E-01   1.00800           0
     12263 MEMB     93       POPC     C216     CTL2    -0.180000       12.0110           0
     12264 MEMB     93       POPC     H16R     HAL2     0.900000E-01   1.00800           0
     12265 MEMB     93       POPC     H16S     HAL2     0.900000E-01   1.00800           0
     12266 MEMB     93       POPC     C217     CTL2    -0.180000       12.0110           0
     12267 MEMB     93       POPC     H17R     HAL2     0.900000E-01   1.00800           0
     12268 MEMB     93       POPC     H17S     HAL2     0.900000E-01   1.00800           0
     12269 MEMB     93       POPC     C218     CTL3    -0.270000       12.0110           0
     12270 MEMB     93       POPC     H18R     HAL3     0.900000E-01   1.00800           0
     12271 MEMB     93       POPC     H18S     HAL3     0.900000E-01   1.00800           0
     12272 MEMB     93       POPC     H18T     HAL3     0.900000E-01   1.00800           0
     12273 MEMB     93       POPC     C33      CTL2    -0.180000       12.0110           0
     12274 MEMB     93       POPC     H3X      HAL2     0.900000E-01   1.00800           0
     12275 MEMB     93       POPC     H3Y      HAL2     0.900000E-01   1.00800           0
     12276 MEMB     93       POPC     C34      CTL2    -0.180000       12.0110           0
     12277 MEMB     93       POPC     H4X      HAL2     0.900000E-01   1.00800           0
     12278 MEMB     93       POPC     H4Y      HAL2     0.900000E-01   1.00800           0
     12279 MEMB     93       POPC     C35      CTL2    -0.180000       12.0110           0
     12280 MEMB     93       POPC     H5X      HAL2     0.900000E-01   1.00800           0
     12281 MEMB     93       POPC     H5Y      HAL2     0.900000E-01   1.00800           0
     12282 MEMB     93       POPC     C36      CTL2    -0.180000       12.0110           0
     12283 MEMB     93       POPC     H6X      HAL2     0.900000E-01   1.00800           0
     12284 MEMB     93       POPC     H6Y      HAL2     0.900000E-01   1.00800           0
     12285 MEMB     93       POPC     C37      CTL2    -0.180000       12.0110           0
     12286 MEMB     93       POPC     H7X      HAL2     0.900000E-01   1.00800           0
     12287 MEMB     93       POPC     H7Y      HAL2     0.900000E-01   1.00800           0
     12288 MEMB     93       POPC     C38      CTL2    -0.180000       12.0110           0
     12289 MEMB     93       POPC     H8X      HAL2     0.900000E-01   1.00800           0
     12290 MEMB     93       POPC     H8Y      HAL2     0.900000E-01   1.00800           0
     12291 MEMB     93       POPC     C39      CTL2    -0.180000       12.0110           0
     12292 MEMB     93       POPC     H9X      HAL2     0.900000E-01   1.00800           0
     12293 MEMB     93       POPC     H9Y      HAL2     0.900000E-01   1.00800           0
     12294 MEMB     93       POPC     C310     CTL2    -0.180000       12.0110           0
     12295 MEMB     93       POPC     H10X     HAL2     0.900000E-01   1.00800           0
     12296 MEMB     93       POPC     H10Y     HAL2     0.900000E-01   1.00800           0
     12297 MEMB     93       POPC     C311     CTL2    -0.180000       12.0110           0
     12298 MEMB     93       POPC     H11X     HAL2     0.900000E-01   1.00800           0
     12299 MEMB     93       POPC     H11Y     HAL2     0.900000E-01   1.00800           0
     12300 MEMB     93       POPC     C312     CTL2    -0.180000       12.0110           0
     12301 MEMB     93       POPC     H12X     HAL2     0.900000E-01   1.00800           0
     12302 MEMB     93       POPC     H12Y     HAL2     0.900000E-01   1.00800           0
     12303 MEMB     93       POPC     C313     CTL2    -0.180000       12.0110           0
     12304 MEMB     93       POPC     H13X     HAL2     0.900000E-01   1.00800           0
     12305 MEMB     93       POPC     H13Y     HAL2     0.900000E-01   1.00800           0
     12306 MEMB     93       POPC     C314     CTL2    -0.180000       12.0110           0
     12307 MEMB     93       POPC     H14X     HAL2     0.900000E-01   1.00800           0
     12308 MEMB     93       POPC     H14Y     HAL2     0.900000E-01   1.00800           0
     12309 MEMB     93       POPC     C315     CTL2    -0.180000       12.0110           0
     12310 MEMB     93       POPC     H15X     HAL2     0.900000E-01   1.00800           0
     12311 MEMB     93       POPC     H15Y     HAL2     0.900000E-01   1.00800           0
     12312 MEMB     93       POPC     C316     CTL3    -0.270000       12.0110           0
     12313 MEMB     93       POPC     H16X     HAL3     0.900000E-01   1.00800           0
     12314 MEMB     93       POPC     H16Y     HAL3     0.900000E-01   1.00800           0
     12315 MEMB     93       POPC     H16Z     HAL3     0.900000E-01   1.00800           0
     12316 MEMB     94       POPC     N        NTL     -0.600000       14.0070           0
     12317 MEMB     94       POPC     C12      CTL2    -0.100000       12.0110           0
     12318 MEMB     94       POPC     H12A     HL       0.250000       1.00800           0
     12319 MEMB     94       POPC     H12B     HL       0.250000       1.00800           0
     12320 MEMB     94       POPC     C13      CTL5    -0.350000       12.0110           0
     12321 MEMB     94       POPC     H13A     HL       0.250000       1.00800           0
     12322 MEMB     94       POPC     H13B     HL       0.250000       1.00800           0
     12323 MEMB     94       POPC     H13C     HL       0.250000       1.00800           0
     12324 MEMB     94       POPC     C14      CTL5    -0.350000       12.0110           0
     12325 MEMB     94       POPC     H14A     HL       0.250000       1.00800           0
     12326 MEMB     94       POPC     H14B     HL       0.250000       1.00800           0
     12327 MEMB     94       POPC     H14C     HL       0.250000       1.00800           0
     12328 MEMB     94       POPC     C15      CTL5    -0.350000       12.0110           0
     12329 MEMB     94       POPC     H15A     HL       0.250000       1.00800           0
     12330 MEMB     94       POPC     H15B     HL       0.250000       1.00800           0
     12331 MEMB     94       POPC     H15C     HL       0.250000       1.00800           0
     12332 MEMB     94       POPC     C11      CTL2    -0.800000E-01   12.0110           0
     12333 MEMB     94       POPC     H11A     HAL2     0.900000E-01   1.00800           0
     12334 MEMB     94       POPC     H11B     HAL2     0.900000E-01   1.00800           0
     12335 MEMB     94       POPC     P        PL        1.50000       30.9740           0
     12336 MEMB     94       POPC     O13      O2L     -0.780000       15.9994           0
     12337 MEMB     94       POPC     O14      O2L     -0.780000       15.9994           0
     12338 MEMB     94       POPC     O12      OSLP    -0.570000       15.9994           0
     12339 MEMB     94       POPC     O11      OSLP    -0.570000       15.9994           0
     12340 MEMB     94       POPC     C1       CTL2    -0.800000E-01   12.0110           0
     12341 MEMB     94       POPC     HA       HAL2     0.900000E-01   1.00800           0
     12342 MEMB     94       POPC     HB       HAL2     0.900000E-01   1.00800           0
     12343 MEMB     94       POPC     C2       CTL1     0.170000       12.0110           0
     12344 MEMB     94       POPC     HS       HAL1     0.900000E-01   1.00800           0
     12345 MEMB     94       POPC     O21      OSL     -0.490000       15.9994           0
     12346 MEMB     94       POPC     C21      CL       0.900000       12.0110           0
     12347 MEMB     94       POPC     O22      OBL     -0.630000       15.9994           0
     12348 MEMB     94       POPC     C22      CTL2    -0.220000       12.0110           0
     12349 MEMB     94       POPC     H2R      HAL2     0.900000E-01   1.00800           0
     12350 MEMB     94       POPC     H2S      HAL2     0.900000E-01   1.00800           0
     12351 MEMB     94       POPC     C3       CTL2     0.800000E-01   12.0110           0
     12352 MEMB     94       POPC     HX       HAL2     0.900000E-01   1.00800           0
     12353 MEMB     94       POPC     HY       HAL2     0.900000E-01   1.00800           0
     12354 MEMB     94       POPC     O31      OSL     -0.490000       15.9994           0
     12355 MEMB     94       POPC     C31      CL       0.900000       12.0110           0
     12356 MEMB     94       POPC     O32      OBL     -0.630000       15.9994           0
     12357 MEMB     94       POPC     C32      CTL2    -0.220000       12.0110           0
     12358 MEMB     94       POPC     H2X      HAL2     0.900000E-01   1.00800           0
     12359 MEMB     94       POPC     H2Y      HAL2     0.900000E-01   1.00800           0
     12360 MEMB     94       POPC     C23      CTL2    -0.180000       12.0110           0
     12361 MEMB     94       POPC     H3R      HAL2     0.900000E-01   1.00800           0
     12362 MEMB     94       POPC     H3S      HAL2     0.900000E-01   1.00800           0
     12363 MEMB     94       POPC     C24      CTL2    -0.180000       12.0110           0
     12364 MEMB     94       POPC     H4R      HAL2     0.900000E-01   1.00800           0
     12365 MEMB     94       POPC     H4S      HAL2     0.900000E-01   1.00800           0
     12366 MEMB     94       POPC     C25      CTL2    -0.180000       12.0110           0
     12367 MEMB     94       POPC     H5R      HAL2     0.900000E-01   1.00800           0
     12368 MEMB     94       POPC     H5S      HAL2     0.900000E-01   1.00800           0
     12369 MEMB     94       POPC     C26      CTL2    -0.180000       12.0110           0
     12370 MEMB     94       POPC     H6R      HAL2     0.900000E-01   1.00800           0
     12371 MEMB     94       POPC     H6S      HAL2     0.900000E-01   1.00800           0
     12372 MEMB     94       POPC     C27      CTL2    -0.180000       12.0110           0
     12373 MEMB     94       POPC     H7R      HAL2     0.900000E-01   1.00800           0
     12374 MEMB     94       POPC     H7S      HAL2     0.900000E-01   1.00800           0
     12375 MEMB     94       POPC     C28      CTL2    -0.180000       12.0110           0
     12376 MEMB     94       POPC     H8R      HAL2     0.900000E-01   1.00800           0
     12377 MEMB     94       POPC     H8S      HAL2     0.900000E-01   1.00800           0
     12378 MEMB     94       POPC     C29      CEL1    -0.150000       12.0110           0
     12379 MEMB     94       POPC     H91      HEL1     0.150000       1.00800           0
     12380 MEMB     94       POPC     C210     CEL1    -0.150000       12.0110           0
     12381 MEMB     94       POPC     H101     HEL1     0.150000       1.00800           0
     12382 MEMB     94       POPC     C211     CTL2    -0.180000       12.0110           0
     12383 MEMB     94       POPC     H11R     HAL2     0.900000E-01   1.00800           0
     12384 MEMB     94       POPC     H11S     HAL2     0.900000E-01   1.00800           0
     12385 MEMB     94       POPC     C212     CTL2    -0.180000       12.0110           0
     12386 MEMB     94       POPC     H12R     HAL2     0.900000E-01   1.00800           0
     12387 MEMB     94       POPC     H12S     HAL2     0.900000E-01   1.00800           0
     12388 MEMB     94       POPC     C213     CTL2    -0.180000       12.0110           0
     12389 MEMB     94       POPC     H13R     HAL2     0.900000E-01   1.00800           0
     12390 MEMB     94       POPC     H13S     HAL2     0.900000E-01   1.00800           0
     12391 MEMB     94       POPC     C214     CTL2    -0.180000       12.0110           0
     12392 MEMB     94       POPC     H14R     HAL2     0.900000E-01   1.00800           0
     12393 MEMB     94       POPC     H14S     HAL2     0.900000E-01   1.00800           0
     12394 MEMB     94       POPC     C215     CTL2    -0.180000       12.0110           0
     12395 MEMB     94       POPC     H15R     HAL2     0.900000E-01   1.00800           0
     12396 MEMB     94       POPC     H15S     HAL2     0.900000E-01   1.00800           0
     12397 MEMB     94       POPC     C216     CTL2    -0.180000       12.0110           0
     12398 MEMB     94       POPC     H16R     HAL2     0.900000E-01   1.00800           0
     12399 MEMB     94       POPC     H16S     HAL2     0.900000E-01   1.00800           0
     12400 MEMB     94       POPC     C217     CTL2    -0.180000       12.0110           0
     12401 MEMB     94       POPC     H17R     HAL2     0.900000E-01   1.00800           0
     12402 MEMB     94       POPC     H17S     HAL2     0.900000E-01   1.00800           0
     12403 MEMB     94       POPC     C218     CTL3    -0.270000       12.0110           0
     12404 MEMB     94       POPC     H18R     HAL3     0.900000E-01   1.00800           0
     12405 MEMB     94       POPC     H18S     HAL3     0.900000E-01   1.00800           0
     12406 MEMB     94       POPC     H18T     HAL3     0.900000E-01   1.00800           0
     12407 MEMB     94       POPC     C33      CTL2    -0.180000       12.0110           0
     12408 MEMB     94       POPC     H3X      HAL2     0.900000E-01   1.00800           0
     12409 MEMB     94       POPC     H3Y      HAL2     0.900000E-01   1.00800           0
     12410 MEMB     94       POPC     C34      CTL2    -0.180000       12.0110           0
     12411 MEMB     94       POPC     H4X      HAL2     0.900000E-01   1.00800           0
     12412 MEMB     94       POPC     H4Y      HAL2     0.900000E-01   1.00800           0
     12413 MEMB     94       POPC     C35      CTL2    -0.180000       12.0110           0
     12414 MEMB     94       POPC     H5X      HAL2     0.900000E-01   1.00800           0
     12415 MEMB     94       POPC     H5Y      HAL2     0.900000E-01   1.00800           0
     12416 MEMB     94       POPC     C36      CTL2    -0.180000       12.0110           0
     12417 MEMB     94       POPC     H6X      HAL2     0.900000E-01   1.00800           0
     12418 MEMB     94       POPC     H6Y      HAL2     0.900000E-01   1.00800           0
     12419 MEMB     94       POPC     C37      CTL2    -0.180000       12.0110           0
     12420 MEMB     94       POPC     H7X      HAL2     0.900000E-01   1.00800           0
     12421 MEMB     94       POPC     H7Y      HAL2     0.900000E-01   1.00800           0
     12422 MEMB     94       POPC     C38      CTL2    -0.180000       12.0110           0
     12423 MEMB     94       POPC     H8X      HAL2     0.900000E-01   1.00800           0
     12424 MEMB     94       POPC     H8Y      HAL2     0.900000E-01   1.00800           0
     12425 MEMB     94       POPC     C39      CTL2    -0.180000       12.0110           0
     12426 MEMB     94       POPC     H9X      HAL2     0.900000E-01   1.00800           0
     12427 MEMB     94       POPC     H9Y      HAL2     0.900000E-01   1.00800           0
     12428 MEMB     94       POPC     C310     CTL2    -0.180000       12.0110           0
     12429 MEMB     94       POPC     H10X     HAL2     0.900000E-01   1.00800           0
     12430 MEMB     94       POPC     H10Y     HAL2     0.900000E-01   1.00800           0
     12431 MEMB     94       POPC     C311     CTL2    -0.180000       12.0110           0
     12432 MEMB     94       POPC     H11X     HAL2     0.900000E-01   1.00800           0
     12433 MEMB     94       POPC     H11Y     HAL2     0.900000E-01   1.00800           0
     12434 MEMB     94       POPC     C312     CTL2    -0.180000       12.0110           0
     12435 MEMB     94       POPC     H12X     HAL2     0.900000E-01   1.00800           0
     12436 MEMB     94       POPC     H12Y     HAL2     0.900000E-01   1.00800           0
     12437 MEMB     94       POPC     C313     CTL2    -0.180000       12.0110           0
     12438 MEMB     94       POPC     H13X     HAL2     0.900000E-01   1.00800           0
     12439 MEMB     94       POPC     H13Y     HAL2     0.900000E-01   1.00800           0
     12440 MEMB     94       POPC     C314     CTL2    -0.180000       12.0110           0
     12441 MEMB     94       POPC     H14X     HAL2     0.900000E-01   1.00800           0
     12442 MEMB     94       POPC     H14Y     HAL2     0.900000E-01   1.00800           0
     12443 MEMB     94       POPC     C315     CTL2    -0.180000       12.0110           0
     12444 MEMB     94       POPC     H15X     HAL2     0.900000E-01   1.00800           0
     12445 MEMB     94       POPC     H15Y     HAL2     0.900000E-01   1.00800           0
     12446 MEMB     94       POPC     C316     CTL3    -0.270000       12.0110           0
     12447 MEMB     94       POPC     H16X     HAL3     0.900000E-01   1.00800           0
     12448 MEMB     94       POPC     H16Y     HAL3     0.900000E-01   1.00800           0
     12449 MEMB     94       POPC     H16Z     HAL3     0.900000E-01   1.00800           0
     12450 MEMB     95       POPS     N        NH3L    -0.300000       14.0070           0
     12451 MEMB     95       POPS     HN1      HCL      0.330000       1.00800           0
     12452 MEMB     95       POPS     HN2      HCL      0.330000       1.00800           0
     12453 MEMB     95       POPS     HN3      HCL      0.330000       1.00800           0
     12454 MEMB     95       POPS     C12      CTL1     0.210000       12.0110           0
     12455 MEMB     95       POPS     H12A     HBL      0.100000       1.00800           0
     12456 MEMB     95       POPS     C13      CCL      0.340000       12.0110           0
     12457 MEMB     95       POPS     O13A     OCL     -0.670000       15.9994           0
     12458 MEMB     95       POPS     O13B     OCL     -0.670000       15.9994           0
     12459 MEMB     95       POPS     C11      CTL2    -0.800000E-01   12.0110           0
     12460 MEMB     95       POPS     H11A     HAL2     0.900000E-01   1.00800           0
     12461 MEMB     95       POPS     H11B     HAL2     0.900000E-01   1.00800           0
     12462 MEMB     95       POPS     P        PL        1.50000       30.9740           0
     12463 MEMB     95       POPS     O13      O2L     -0.780000       15.9994           0
     12464 MEMB     95       POPS     O14      O2L     -0.780000       15.9994           0
     12465 MEMB     95       POPS     O12      OSLP    -0.570000       15.9994           0
     12466 MEMB     95       POPS     O11      OSLP    -0.570000       15.9994           0
     12467 MEMB     95       POPS     C1       CTL2    -0.800000E-01   12.0110           0
     12468 MEMB     95       POPS     HA       HAL2     0.900000E-01   1.00800           0
     12469 MEMB     95       POPS     HB       HAL2     0.900000E-01   1.00800           0
     12470 MEMB     95       POPS     C2       CTL1     0.170000       12.0110           0
     12471 MEMB     95       POPS     HS       HAL1     0.900000E-01   1.00800           0
     12472 MEMB     95       POPS     O21      OSL     -0.490000       15.9994           0
     12473 MEMB     95       POPS     C21      CL       0.900000       12.0110           0
     12474 MEMB     95       POPS     O22      OBL     -0.630000       15.9994           0
     12475 MEMB     95       POPS     C22      CTL2    -0.220000       12.0110           0
     12476 MEMB     95       POPS     H2R      HAL2     0.900000E-01   1.00800           0
     12477 MEMB     95       POPS     H2S      HAL2     0.900000E-01   1.00800           0
     12478 MEMB     95       POPS     C3       CTL2     0.800000E-01   12.0110           0
     12479 MEMB     95       POPS     HX       HAL2     0.900000E-01   1.00800           0
     12480 MEMB     95       POPS     HY       HAL2     0.900000E-01   1.00800           0
     12481 MEMB     95       POPS     O31      OSL     -0.490000       15.9994           0
     12482 MEMB     95       POPS     C31      CL       0.900000       12.0110           0
     12483 MEMB     95       POPS     O32      OBL     -0.630000       15.9994           0
     12484 MEMB     95       POPS     C32      CTL2    -0.220000       12.0110           0
     12485 MEMB     95       POPS     H2X      HAL2     0.900000E-01   1.00800           0
     12486 MEMB     95       POPS     H2Y      HAL2     0.900000E-01   1.00800           0
     12487 MEMB     95       POPS     C23      CTL2    -0.180000       12.0110           0
     12488 MEMB     95       POPS     H3R      HAL2     0.900000E-01   1.00800           0
     12489 MEMB     95       POPS     H3S      HAL2     0.900000E-01   1.00800           0
     12490 MEMB     95       POPS     C24      CTL2    -0.180000       12.0110           0
     12491 MEMB     95       POPS     H4R      HAL2     0.900000E-01   1.00800           0
     12492 MEMB     95       POPS     H4S      HAL2     0.900000E-01   1.00800           0
     12493 MEMB     95       POPS     C25      CTL2    -0.180000       12.0110           0
     12494 MEMB     95       POPS     H5R      HAL2     0.900000E-01   1.00800           0
     12495 MEMB     95       POPS     H5S      HAL2     0.900000E-01   1.00800           0
     12496 MEMB     95       POPS     C26      CTL2    -0.180000       12.0110           0
     12497 MEMB     95       POPS     H6R      HAL2     0.900000E-01   1.00800           0
     12498 MEMB     95       POPS     H6S      HAL2     0.900000E-01   1.00800           0
     12499 MEMB     95       POPS     C27      CTL2    -0.180000       12.0110           0
     12500 MEMB     95       POPS     H7R      HAL2     0.900000E-01   1.00800           0
     12501 MEMB     95       POPS     H7S      HAL2     0.900000E-01   1.00800           0
     12502 MEMB     95       POPS     C28      CTL2    -0.180000       12.0110           0
     12503 MEMB     95       POPS     H8R      HAL2     0.900000E-01   1.00800           0
     12504 MEMB     95       POPS     H8S      HAL2     0.900000E-01   1.00800           0
     12505 MEMB     95       POPS     C29      CEL1    -0.150000       12.0110           0
     12506 MEMB     95       POPS     H91      HEL1     0.150000       1.00800           0
     12507 MEMB     95       POPS     C210     CEL1    -0.150000       12.0110           0
     12508 MEMB     95       POPS     H101     HEL1     0.150000       1.00800           0
     12509 MEMB     95       POPS     C211     CTL2    -0.180000       12.0110           0
     12510 MEMB     95       POPS     H11R     HAL2     0.900000E-01   1.00800           0
     12511 MEMB     95       POPS     H11S     HAL2     0.900000E-01   1.00800           0
     12512 MEMB     95       POPS     C212     CTL2    -0.180000       12.0110           0
     12513 MEMB     95       POPS     H12R     HAL2     0.900000E-01   1.00800           0
     12514 MEMB     95       POPS     H12S     HAL2     0.900000E-01   1.00800           0
     12515 MEMB     95       POPS     C213     CTL2    -0.180000       12.0110           0
     12516 MEMB     95       POPS     H13R     HAL2     0.900000E-01   1.00800           0
     12517 MEMB     95       POPS     H13S     HAL2     0.900000E-01   1.00800           0
     12518 MEMB     95       POPS     C214     CTL2    -0.180000       12.0110           0
     12519 MEMB     95       POPS     H14R     HAL2     0.900000E-01   1.00800           0
     12520 MEMB     95       POPS     H14S     HAL2     0.900000E-01   1.00800           0
     12521 MEMB     95       POPS     C215     CTL2    -0.180000       12.0110           0
     12522 MEMB     95       POPS     H15R     HAL2     0.900000E-01   1.00800           0
     12523 MEMB     95       POPS     H15S     HAL2     0.900000E-01   1.00800           0
     12524 MEMB     95       POPS     C216     CTL2    -0.180000       12.0110           0
     12525 MEMB     95       POPS     H16R     HAL2     0.900000E-01   1.00800           0
     12526 MEMB     95       POPS     H16S     HAL2     0.900000E-01   1.00800           0
     12527 MEMB     95       POPS     C217     CTL2    -0.180000       12.0110           0
     12528 MEMB     95       POPS     H17R     HAL2     0.900000E-01   1.00800           0
     12529 MEMB     95       POPS     H17S     HAL2     0.900000E-01   1.00800           0
     12530 MEMB     95       POPS     C218     CTL3    -0.270000       12.0110           0
     12531 MEMB     95       POPS     H18R     HAL3     0.900000E-01   1.00800           0
     12532 MEMB     95       POPS     H18S     HAL3     0.900000E-01   1.00800           0
     12533 MEMB     95       POPS     H18T     HAL3     0.900000E-01   1.00800           0
     12534 MEMB     95       POPS     C33      CTL2    -0.180000       12.0110           0
     12535 MEMB     95       POPS     H3X      HAL2     0.900000E-01   1.00800           0
     12536 MEMB     95       POPS     H3Y      HAL2     0.900000E-01   1.00800           0
     12537 MEMB     95       POPS     C34      CTL2    -0.180000       12.0110           0
     12538 MEMB     95       POPS     H4X      HAL2     0.900000E-01   1.00800           0
     12539 MEMB     95       POPS     H4Y      HAL2     0.900000E-01   1.00800           0
     12540 MEMB     95       POPS     C35      CTL2    -0.180000       12.0110           0
     12541 MEMB     95       POPS     H5X      HAL2     0.900000E-01   1.00800           0
     12542 MEMB     95       POPS     H5Y      HAL2     0.900000E-01   1.00800           0
     12543 MEMB     95       POPS     C36      CTL2    -0.180000       12.0110           0
     12544 MEMB     95       POPS     H6X      HAL2     0.900000E-01   1.00800           0
     12545 MEMB     95       POPS     H6Y      HAL2     0.900000E-01   1.00800           0
     12546 MEMB     95       POPS     C37      CTL2    -0.180000       12.0110           0
     12547 MEMB     95       POPS     H7X      HAL2     0.900000E-01   1.00800           0
     12548 MEMB     95       POPS     H7Y      HAL2     0.900000E-01   1.00800           0
     12549 MEMB     95       POPS     C38      CTL2    -0.180000       12.0110           0
     12550 MEMB     95       POPS     H8X      HAL2     0.900000E-01   1.00800           0
     12551 MEMB     95       POPS     H8Y      HAL2     0.900000E-01   1.00800           0
     12552 MEMB     95       POPS     C39      CTL2    -0.180000       12.0110           0
     12553 MEMB     95       POPS     H9X      HAL2     0.900000E-01   1.00800           0
     12554 MEMB     95       POPS     H9Y      HAL2     0.900000E-01   1.00800           0
     12555 MEMB     95       POPS     C310     CTL2    -0.180000       12.0110           0
     12556 MEMB     95       POPS     H10X     HAL2     0.900000E-01   1.00800           0
     12557 MEMB     95       POPS     H10Y     HAL2     0.900000E-01   1.00800           0
     12558 MEMB     95       POPS     C311     CTL2    -0.180000       12.0110           0
     12559 MEMB     95       POPS     H11X     HAL2     0.900000E-01   1.00800           0
     12560 MEMB     95       POPS     H11Y     HAL2     0.900000E-01   1.00800           0
     12561 MEMB     95       POPS     C312     CTL2    -0.180000       12.0110           0
     12562 MEMB     95       POPS     H12X     HAL2     0.900000E-01   1.00800           0
     12563 MEMB     95       POPS     H12Y     HAL2     0.900000E-01   1.00800           0
     12564 MEMB     95       POPS     C313     CTL2    -0.180000       12.0110           0
     12565 MEMB     95       POPS     H13X     HAL2     0.900000E-01   1.00800           0
     12566 MEMB     95       POPS     H13Y     HAL2     0.900000E-01   1.00800           0
     12567 MEMB     95       POPS     C314     CTL2    -0.180000       12.0110           0
     12568 MEMB     95       POPS     H14X     HAL2     0.900000E-01   1.00800           0
     12569 MEMB     95       POPS     H14Y     HAL2     0.900000E-01   1.00800           0
     12570 MEMB     95       POPS     C315     CTL2    -0.180000       12.0110           0
     12571 MEMB     95       POPS     H15X     HAL2     0.900000E-01   1.00800           0
     12572 MEMB     95       POPS     H15Y     HAL2     0.900000E-01   1.00800           0
     12573 MEMB     95       POPS     C316     CTL3    -0.270000       12.0110           0
     12574 MEMB     95       POPS     H16X     HAL3     0.900000E-01   1.00800           0
     12575 MEMB     95       POPS     H16Y     HAL3     0.900000E-01   1.00800           0
     12576 MEMB     95       POPS     H16Z     HAL3     0.900000E-01   1.00800           0
     12577 MEMB     96       POPC     N        NTL     -0.600000       14.0070           0
     12578 MEMB     96       POPC     C12      CTL2    -0.100000       12.0110           0
     12579 MEMB     96       POPC     H12A     HL       0.250000       1.00800           0
     12580 MEMB     96       POPC     H12B     HL       0.250000       1.00800           0
     12581 MEMB     96       POPC     C13      CTL5    -0.350000       12.0110           0
     12582 MEMB     96       POPC     H13A     HL       0.250000       1.00800           0
     12583 MEMB     96       POPC     H13B     HL       0.250000       1.00800           0
     12584 MEMB     96       POPC     H13C     HL       0.250000       1.00800           0
     12585 MEMB     96       POPC     C14      CTL5    -0.350000       12.0110           0
     12586 MEMB     96       POPC     H14A     HL       0.250000       1.00800           0
     12587 MEMB     96       POPC     H14B     HL       0.250000       1.00800           0
     12588 MEMB     96       POPC     H14C     HL       0.250000       1.00800           0
     12589 MEMB     96       POPC     C15      CTL5    -0.350000       12.0110           0
     12590 MEMB     96       POPC     H15A     HL       0.250000       1.00800           0
     12591 MEMB     96       POPC     H15B     HL       0.250000       1.00800           0
     12592 MEMB     96       POPC     H15C     HL       0.250000       1.00800           0
     12593 MEMB     96       POPC     C11      CTL2    -0.800000E-01   12.0110           0
     12594 MEMB     96       POPC     H11A     HAL2     0.900000E-01   1.00800           0
     12595 MEMB     96       POPC     H11B     HAL2     0.900000E-01   1.00800           0
     12596 MEMB     96       POPC     P        PL        1.50000       30.9740           0
     12597 MEMB     96       POPC     O13      O2L     -0.780000       15.9994           0
     12598 MEMB     96       POPC     O14      O2L     -0.780000       15.9994           0
     12599 MEMB     96       POPC     O12      OSLP    -0.570000       15.9994           0
     12600 MEMB     96       POPC     O11      OSLP    -0.570000       15.9994           0
     12601 MEMB     96       POPC     C1       CTL2    -0.800000E-01   12.0110           0
     12602 MEMB     96       POPC     HA       HAL2     0.900000E-01   1.00800           0
     12603 MEMB     96       POPC     HB       HAL2     0.900000E-01   1.00800           0
     12604 MEMB     96       POPC     C2       CTL1     0.170000       12.0110           0
     12605 MEMB     96       POPC     HS       HAL1     0.900000E-01   1.00800           0
     12606 MEMB     96       POPC     O21      OSL     -0.490000       15.9994           0
     12607 MEMB     96       POPC     C21      CL       0.900000       12.0110           0
     12608 MEMB     96       POPC     O22      OBL     -0.630000       15.9994           0
     12609 MEMB     96       POPC     C22      CTL2    -0.220000       12.0110           0
     12610 MEMB     96       POPC     H2R      HAL2     0.900000E-01   1.00800           0
     12611 MEMB     96       POPC     H2S      HAL2     0.900000E-01   1.00800           0
     12612 MEMB     96       POPC     C3       CTL2     0.800000E-01   12.0110           0
     12613 MEMB     96       POPC     HX       HAL2     0.900000E-01   1.00800           0
     12614 MEMB     96       POPC     HY       HAL2     0.900000E-01   1.00800           0
     12615 MEMB     96       POPC     O31      OSL     -0.490000       15.9994           0
     12616 MEMB     96       POPC     C31      CL       0.900000       12.0110           0
     12617 MEMB     96       POPC     O32      OBL     -0.630000       15.9994           0
     12618 MEMB     96       POPC     C32      CTL2    -0.220000       12.0110           0
     12619 MEMB     96       POPC     H2X      HAL2     0.900000E-01   1.00800           0
     12620 MEMB     96       POPC     H2Y      HAL2     0.900000E-01   1.00800           0
     12621 MEMB     96       POPC     C23      CTL2    -0.180000       12.0110           0
     12622 MEMB     96       POPC     H3R      HAL2     0.900000E-01   1.00800           0
     12623 MEMB     96       POPC     H3S      HAL2     0.900000E-01   1.00800           0
     12624 MEMB     96       POPC     C24      CTL2    -0.180000       12.0110           0
     12625 MEMB     96       POPC     H4R      HAL2     0.900000E-01   1.00800           0
     12626 MEMB     96       POPC     H4S      HAL2     0.900000E-01   1.00800           0
     12627 MEMB     96       POPC     C25      CTL2    -0.180000       12.0110           0
     12628 MEMB     96       POPC     H5R      HAL2     0.900000E-01   1.00800           0
     12629 MEMB     96       POPC     H5S      HAL2     0.900000E-01   1.00800           0
     12630 MEMB     96       POPC     C26      CTL2    -0.180000       12.0110           0
     12631 MEMB     96       POPC     H6R      HAL2     0.900000E-01   1.00800           0
     12632 MEMB     96       POPC     H6S      HAL2     0.900000E-01   1.00800           0
     12633 MEMB     96       POPC     C27      CTL2    -0.180000       12.0110           0
     12634 MEMB     96       POPC     H7R      HAL2     0.900000E-01   1.00800           0
     12635 MEMB     96       POPC     H7S      HAL2     0.900000E-01   1.00800           0
     12636 MEMB     96       POPC     C28      CTL2    -0.180000       12.0110           0
     12637 MEMB     96       POPC     H8R      HAL2     0.900000E-01   1.00800           0
     12638 MEMB     96       POPC     H8S      HAL2     0.900000E-01   1.00800           0
     12639 MEMB     96       POPC     C29      CEL1    -0.150000       12.0110           0
     12640 MEMB     96       POPC     H91      HEL1     0.150000       1.00800           0
     12641 MEMB     96       POPC     C210     CEL1    -0.150000       12.0110           0
     12642 MEMB     96       POPC     H101     HEL1     0.150000       1.00800           0
     12643 MEMB     96       POPC     C211     CTL2    -0.180000       12.0110           0
     12644 MEMB     96       POPC     H11R     HAL2     0.900000E-01   1.00800           0
     12645 MEMB     96       POPC     H11S     HAL2     0.900000E-01   1.00800           0
     12646 MEMB     96       POPC     C212     CTL2    -0.180000       12.0110           0
     12647 MEMB     96       POPC     H12R     HAL2     0.900000E-01   1.00800           0
     12648 MEMB     96       POPC     H12S     HAL2     0.900000E-01   1.00800           0
     12649 MEMB     96       POPC     C213     CTL2    -0.180000       12.0110           0
     12650 MEMB     96       POPC     H13R     HAL2     0.900000E-01   1.00800           0
     12651 MEMB     96       POPC     H13S     HAL2     0.900000E-01   1.00800           0
     12652 MEMB     96       POPC     C214     CTL2    -0.180000       12.0110           0
     12653 MEMB     96       POPC     H14R     HAL2     0.900000E-01   1.00800           0
     12654 MEMB     96       POPC     H14S     HAL2     0.900000E-01   1.00800           0
     12655 MEMB     96       POPC     C215     CTL2    -0.180000       12.0110           0
     12656 MEMB     96       POPC     H15R     HAL2     0.900000E-01   1.00800           0
     12657 MEMB     96       POPC     H15S     HAL2     0.900000E-01   1.00800           0
     12658 MEMB     96       POPC     C216     CTL2    -0.180000       12.0110           0
     12659 MEMB     96       POPC     H16R     HAL2     0.900000E-01   1.00800           0
     12660 MEMB     96       POPC     H16S     HAL2     0.900000E-01   1.00800           0
     12661 MEMB     96       POPC     C217     CTL2    -0.180000       12.0110           0
     12662 MEMB     96       POPC     H17R     HAL2     0.900000E-01   1.00800           0
     12663 MEMB     96       POPC     H17S     HAL2     0.900000E-01   1.00800           0
     12664 MEMB     96       POPC     C218     CTL3    -0.270000       12.0110           0
     12665 MEMB     96       POPC     H18R     HAL3     0.900000E-01   1.00800           0
     12666 MEMB     96       POPC     H18S     HAL3     0.900000E-01   1.00800           0
     12667 MEMB     96       POPC     H18T     HAL3     0.900000E-01   1.00800           0
     12668 MEMB     96       POPC     C33      CTL2    -0.180000       12.0110           0
     12669 MEMB     96       POPC     H3X      HAL2     0.900000E-01   1.00800           0
     12670 MEMB     96       POPC     H3Y      HAL2     0.900000E-01   1.00800           0
     12671 MEMB     96       POPC     C34      CTL2    -0.180000       12.0110           0
     12672 MEMB     96       POPC     H4X      HAL2     0.900000E-01   1.00800           0
     12673 MEMB     96       POPC     H4Y      HAL2     0.900000E-01   1.00800           0
     12674 MEMB     96       POPC     C35      CTL2    -0.180000       12.0110           0
     12675 MEMB     96       POPC     H5X      HAL2     0.900000E-01   1.00800           0
     12676 MEMB     96       POPC     H5Y      HAL2     0.900000E-01   1.00800           0
     12677 MEMB     96       POPC     C36      CTL2    -0.180000       12.0110           0
     12678 MEMB     96       POPC     H6X      HAL2     0.900000E-01   1.00800           0
     12679 MEMB     96       POPC     H6Y      HAL2     0.900000E-01   1.00800           0
     12680 MEMB     96       POPC     C37      CTL2    -0.180000       12.0110           0
     12681 MEMB     96       POPC     H7X      HAL2     0.900000E-01   1.00800           0
     12682 MEMB     96       POPC     H7Y      HAL2     0.900000E-01   1.00800           0
     12683 MEMB     96       POPC     C38      CTL2    -0.180000       12.0110           0
     12684 MEMB     96       POPC     H8X      HAL2     0.900000E-01   1.00800           0
     12685 MEMB     96       POPC     H8Y      HAL2     0.900000E-01   1.00800           0
     12686 MEMB     96       POPC     C39      CTL2    -0.180000       12.0110           0
     12687 MEMB     96       POPC     H9X      HAL2     0.900000E-01   1.00800           0
     12688 MEMB     96       POPC     H9Y      HAL2     0.900000E-01   1.00800           0
     12689 MEMB     96       POPC     C310     CTL2    -0.180000       12.0110           0
     12690 MEMB     96       POPC     H10X     HAL2     0.900000E-01   1.00800           0
     12691 MEMB     96       POPC     H10Y     HAL2     0.900000E-01   1.00800           0
     12692 MEMB     96       POPC     C311     CTL2    -0.180000       12.0110           0
     12693 MEMB     96       POPC     H11X     HAL2     0.900000E-01   1.00800           0
     12694 MEMB     96       POPC     H11Y     HAL2     0.900000E-01   1.00800           0
     12695 MEMB     96       POPC     C312     CTL2    -0.180000       12.0110           0
     12696 MEMB     96       POPC     H12X     HAL2     0.900000E-01   1.00800           0
     12697 MEMB     96       POPC     H12Y     HAL2     0.900000E-01   1.00800           0
     12698 MEMB     96       POPC     C313     CTL2    -0.180000       12.0110           0
     12699 MEMB     96       POPC     H13X     HAL2     0.900000E-01   1.00800           0
     12700 MEMB     96       POPC     H13Y     HAL2     0.900000E-01   1.00800           0
     12701 MEMB     96       POPC     C314     CTL2    -0.180000       12.0110           0
     12702 MEMB     96       POPC     H14X     HAL2     0.900000E-01   1.00800           0
     12703 MEMB     96       POPC     H14Y     HAL2     0.900000E-01   1.00800           0
     12704 MEMB     96       POPC     C315     CTL2    -0.180000       12.0110           0
     12705 MEMB     96       POPC     H15X     HAL2     0.900000E-01   1.00800           0
     12706 MEMB     96       POPC     H15Y     HAL2     0.900000E-01   1.00800           0
     12707 MEMB     96       POPC     C316     CTL3    -0.270000       12.0110           0
     12708 MEMB     96       POPC     H16X     HAL3     0.900000E-01   1.00800           0
     12709 MEMB     96       POPC     H16Y     HAL3     0.900000E-01   1.00800           0
     12710 MEMB     96       POPC     H16Z     HAL3     0.900000E-01   1.00800           0
     12711 MEMB     97       POPC     N        NTL     -0.600000       14.0070           0
     12712 MEMB     97       POPC     C12      CTL2    -0.100000       12.0110           0
     12713 MEMB     97       POPC     H12A     HL       0.250000       1.00800           0
     12714 MEMB     97       POPC     H12B     HL       0.250000       1.00800           0
     12715 MEMB     97       POPC     C13      CTL5    -0.350000       12.0110           0
     12716 MEMB     97       POPC     H13A     HL       0.250000       1.00800           0
     12717 MEMB     97       POPC     H13B     HL       0.250000       1.00800           0
     12718 MEMB     97       POPC     H13C     HL       0.250000       1.00800           0
     12719 MEMB     97       POPC     C14      CTL5    -0.350000       12.0110           0
     12720 MEMB     97       POPC     H14A     HL       0.250000       1.00800           0
     12721 MEMB     97       POPC     H14B     HL       0.250000       1.00800           0
     12722 MEMB     97       POPC     H14C     HL       0.250000       1.00800           0
     12723 MEMB     97       POPC     C15      CTL5    -0.350000       12.0110           0
     12724 MEMB     97       POPC     H15A     HL       0.250000       1.00800           0
     12725 MEMB     97       POPC     H15B     HL       0.250000       1.00800           0
     12726 MEMB     97       POPC     H15C     HL       0.250000       1.00800           0
     12727 MEMB     97       POPC     C11      CTL2    -0.800000E-01   12.0110           0
     12728 MEMB     97       POPC     H11A     HAL2     0.900000E-01   1.00800           0
     12729 MEMB     97       POPC     H11B     HAL2     0.900000E-01   1.00800           0
     12730 MEMB     97       POPC     P        PL        1.50000       30.9740           0
     12731 MEMB     97       POPC     O13      O2L     -0.780000       15.9994           0
     12732 MEMB     97       POPC     O14      O2L     -0.780000       15.9994           0
     12733 MEMB     97       POPC     O12      OSLP    -0.570000       15.9994           0
     12734 MEMB     97       POPC     O11      OSLP    -0.570000       15.9994           0
     12735 MEMB     97       POPC     C1       CTL2    -0.800000E-01   12.0110           0
     12736 MEMB     97       POPC     HA       HAL2     0.900000E-01   1.00800           0
     12737 MEMB     97       POPC     HB       HAL2     0.900000E-01   1.00800           0
     12738 MEMB     97       POPC     C2       CTL1     0.170000       12.0110           0
     12739 MEMB     97       POPC     HS       HAL1     0.900000E-01   1.00800           0
     12740 MEMB     97       POPC     O21      OSL     -0.490000       15.9994           0
     12741 MEMB     97       POPC     C21      CL       0.900000       12.0110           0
     12742 MEMB     97       POPC     O22      OBL     -0.630000       15.9994           0
     12743 MEMB     97       POPC     C22      CTL2    -0.220000       12.0110           0
     12744 MEMB     97       POPC     H2R      HAL2     0.900000E-01   1.00800           0
     12745 MEMB     97       POPC     H2S      HAL2     0.900000E-01   1.00800           0
     12746 MEMB     97       POPC     C3       CTL2     0.800000E-01   12.0110           0
     12747 MEMB     97       POPC     HX       HAL2     0.900000E-01   1.00800           0
     12748 MEMB     97       POPC     HY       HAL2     0.900000E-01   1.00800           0
     12749 MEMB     97       POPC     O31      OSL     -0.490000       15.9994           0
     12750 MEMB     97       POPC     C31      CL       0.900000       12.0110           0
     12751 MEMB     97       POPC     O32      OBL     -0.630000       15.9994           0
     12752 MEMB     97       POPC     C32      CTL2    -0.220000       12.0110           0
     12753 MEMB     97       POPC     H2X      HAL2     0.900000E-01   1.00800           0
     12754 MEMB     97       POPC     H2Y      HAL2     0.900000E-01   1.00800           0
     12755 MEMB     97       POPC     C23      CTL2    -0.180000       12.0110           0
     12756 MEMB     97       POPC     H3R      HAL2     0.900000E-01   1.00800           0
     12757 MEMB     97       POPC     H3S      HAL2     0.900000E-01   1.00800           0
     12758 MEMB     97       POPC     C24      CTL2    -0.180000       12.0110           0
     12759 MEMB     97       POPC     H4R      HAL2     0.900000E-01   1.00800           0
     12760 MEMB     97       POPC     H4S      HAL2     0.900000E-01   1.00800           0
     12761 MEMB     97       POPC     C25      CTL2    -0.180000       12.0110           0
     12762 MEMB     97       POPC     H5R      HAL2     0.900000E-01   1.00800           0
     12763 MEMB     97       POPC     H5S      HAL2     0.900000E-01   1.00800           0
     12764 MEMB     97       POPC     C26      CTL2    -0.180000       12.0110           0
     12765 MEMB     97       POPC     H6R      HAL2     0.900000E-01   1.00800           0
     12766 MEMB     97       POPC     H6S      HAL2     0.900000E-01   1.00800           0
     12767 MEMB     97       POPC     C27      CTL2    -0.180000       12.0110           0
     12768 MEMB     97       POPC     H7R      HAL2     0.900000E-01   1.00800           0
     12769 MEMB     97       POPC     H7S      HAL2     0.900000E-01   1.00800           0
     12770 MEMB     97       POPC     C28      CTL2    -0.180000       12.0110           0
     12771 MEMB     97       POPC     H8R      HAL2     0.900000E-01   1.00800           0
     12772 MEMB     97       POPC     H8S      HAL2     0.900000E-01   1.00800           0
     12773 MEMB     97       POPC     C29      CEL1    -0.150000       12.0110           0
     12774 MEMB     97       POPC     H91      HEL1     0.150000       1.00800           0
     12775 MEMB     97       POPC     C210     CEL1    -0.150000       12.0110           0
     12776 MEMB     97       POPC     H101     HEL1     0.150000       1.00800           0
     12777 MEMB     97       POPC     C211     CTL2    -0.180000       12.0110           0
     12778 MEMB     97       POPC     H11R     HAL2     0.900000E-01   1.00800           0
     12779 MEMB     97       POPC     H11S     HAL2     0.900000E-01   1.00800           0
     12780 MEMB     97       POPC     C212     CTL2    -0.180000       12.0110           0
     12781 MEMB     97       POPC     H12R     HAL2     0.900000E-01   1.00800           0
     12782 MEMB     97       POPC     H12S     HAL2     0.900000E-01   1.00800           0
     12783 MEMB     97       POPC     C213     CTL2    -0.180000       12.0110           0
     12784 MEMB     97       POPC     H13R     HAL2     0.900000E-01   1.00800           0
     12785 MEMB     97       POPC     H13S     HAL2     0.900000E-01   1.00800           0
     12786 MEMB     97       POPC     C214     CTL2    -0.180000       12.0110           0
     12787 MEMB     97       POPC     H14R     HAL2     0.900000E-01   1.00800           0
     12788 MEMB     97       POPC     H14S     HAL2     0.900000E-01   1.00800           0
     12789 MEMB     97       POPC     C215     CTL2    -0.180000       12.0110           0
     12790 MEMB     97       POPC     H15R     HAL2     0.900000E-01   1.00800           0
     12791 MEMB     97       POPC     H15S     HAL2     0.900000E-01   1.00800           0
     12792 MEMB     97       POPC     C216     CTL2    -0.180000       12.0110           0
     12793 MEMB     97       POPC     H16R     HAL2     0.900000E-01   1.00800           0
     12794 MEMB     97       POPC     H16S     HAL2     0.900000E-01   1.00800           0
     12795 MEMB     97       POPC     C217     CTL2    -0.180000       12.0110           0
     12796 MEMB     97       POPC     H17R     HAL2     0.900000E-01   1.00800           0
     12797 MEMB     97       POPC     H17S     HAL2     0.900000E-01   1.00800           0
     12798 MEMB     97       POPC     C218     CTL3    -0.270000       12.0110           0
     12799 MEMB     97       POPC     H18R     HAL3     0.900000E-01   1.00800           0
     12800 MEMB     97       POPC     H18S     HAL3     0.900000E-01   1.00800           0
     12801 MEMB     97       POPC     H18T     HAL3     0.900000E-01   1.00800           0
     12802 MEMB     97       POPC     C33      CTL2    -0.180000       12.0110           0
     12803 MEMB     97       POPC     H3X      HAL2     0.900000E-01   1.00800           0
     12804 MEMB     97       POPC     H3Y      HAL2     0.900000E-01   1.00800           0
     12805 MEMB     97       POPC     C34      CTL2    -0.180000       12.0110           0
     12806 MEMB     97       POPC     H4X      HAL2     0.900000E-01   1.00800           0
     12807 MEMB     97       POPC     H4Y      HAL2     0.900000E-01   1.00800           0
     12808 MEMB     97       POPC     C35      CTL2    -0.180000       12.0110           0
     12809 MEMB     97       POPC     H5X      HAL2     0.900000E-01   1.00800           0
     12810 MEMB     97       POPC     H5Y      HAL2     0.900000E-01   1.00800           0
     12811 MEMB     97       POPC     C36      CTL2    -0.180000       12.0110           0
     12812 MEMB     97       POPC     H6X      HAL2     0.900000E-01   1.00800           0
     12813 MEMB     97       POPC     H6Y      HAL2     0.900000E-01   1.00800           0
     12814 MEMB     97       POPC     C37      CTL2    -0.180000       12.0110           0
     12815 MEMB     97       POPC     H7X      HAL2     0.900000E-01   1.00800           0
     12816 MEMB     97       POPC     H7Y      HAL2     0.900000E-01   1.00800           0
     12817 MEMB     97       POPC     C38      CTL2    -0.180000       12.0110           0
     12818 MEMB     97       POPC     H8X      HAL2     0.900000E-01   1.00800           0
     12819 MEMB     97       POPC     H8Y      HAL2     0.900000E-01   1.00800           0
     12820 MEMB     97       POPC     C39      CTL2    -0.180000       12.0110           0
     12821 MEMB     97       POPC     H9X      HAL2     0.900000E-01   1.00800           0
     12822 MEMB     97       POPC     H9Y      HAL2     0.900000E-01   1.00800           0
     12823 MEMB     97       POPC     C310     CTL2    -0.180000       12.0110           0
     12824 MEMB     97       POPC     H10X     HAL2     0.900000E-01   1.00800           0
     12825 MEMB     97       POPC     H10Y     HAL2     0.900000E-01   1.00800           0
     12826 MEMB     97       POPC     C311     CTL2    -0.180000       12.0110           0
     12827 MEMB     97       POPC     H11X     HAL2     0.900000E-01   1.00800           0
     12828 MEMB     97       POPC     H11Y     HAL2     0.900000E-01   1.00800           0
     12829 MEMB     97       POPC     C312     CTL2    -0.180000       12.0110           0
     12830 MEMB     97       POPC     H12X     HAL2     0.900000E-01   1.00800           0
     12831 MEMB     97       POPC     H12Y     HAL2     0.900000E-01   1.00800           0
     12832 MEMB     97       POPC     C313     CTL2    -0.180000       12.0110           0
     12833 MEMB     97       POPC     H13X     HAL2     0.900000E-01   1.00800           0
     12834 MEMB     97       POPC     H13Y     HAL2     0.900000E-01   1.00800           0
     12835 MEMB     97       POPC     C314     CTL2    -0.180000       12.0110           0
     12836 MEMB     97       POPC     H14X     HAL2     0.900000E-01   1.00800           0
     12837 MEMB     97       POPC     H14Y     HAL2     0.900000E-01   1.00800           0
     12838 MEMB     97       POPC     C315     CTL2    -0.180000       12.0110           0
     12839 MEMB     97       POPC     H15X     HAL2     0.900000E-01   1.00800           0
     12840 MEMB     97       POPC     H15Y     HAL2     0.900000E-01   1.00800           0
     12841 MEMB     97       POPC     C316     CTL3    -0.270000       12.0110           0
     12842 MEMB     97       POPC     H16X     HAL3     0.900000E-01   1.00800           0
     12843 MEMB     97       POPC     H16Y     HAL3     0.900000E-01   1.00800           0
     12844 MEMB     97       POPC     H16Z     HAL3     0.900000E-01   1.00800           0
     12845 MEMB     98       POPC     N        NTL     -0.600000       14.0070           0
     12846 MEMB     98       POPC     C12      CTL2    -0.100000       12.0110           0
     12847 MEMB     98       POPC     H12A     HL       0.250000       1.00800           0
     12848 MEMB     98       POPC     H12B     HL       0.250000       1.00800           0
     12849 MEMB     98       POPC     C13      CTL5    -0.350000       12.0110           0
     12850 MEMB     98       POPC     H13A     HL       0.250000       1.00800           0
     12851 MEMB     98       POPC     H13B     HL       0.250000       1.00800           0
     12852 MEMB     98       POPC     H13C     HL       0.250000       1.00800           0
     12853 MEMB     98       POPC     C14      CTL5    -0.350000       12.0110           0
     12854 MEMB     98       POPC     H14A     HL       0.250000       1.00800           0
     12855 MEMB     98       POPC     H14B     HL       0.250000       1.00800           0
     12856 MEMB     98       POPC     H14C     HL       0.250000       1.00800           0
     12857 MEMB     98       POPC     C15      CTL5    -0.350000       12.0110           0
     12858 MEMB     98       POPC     H15A     HL       0.250000       1.00800           0
     12859 MEMB     98       POPC     H15B     HL       0.250000       1.00800           0
     12860 MEMB     98       POPC     H15C     HL       0.250000       1.00800           0
     12861 MEMB     98       POPC     C11      CTL2    -0.800000E-01   12.0110           0
     12862 MEMB     98       POPC     H11A     HAL2     0.900000E-01   1.00800           0
     12863 MEMB     98       POPC     H11B     HAL2     0.900000E-01   1.00800           0
     12864 MEMB     98       POPC     P        PL        1.50000       30.9740           0
     12865 MEMB     98       POPC     O13      O2L     -0.780000       15.9994           0
     12866 MEMB     98       POPC     O14      O2L     -0.780000       15.9994           0
     12867 MEMB     98       POPC     O12      OSLP    -0.570000       15.9994           0
     12868 MEMB     98       POPC     O11      OSLP    -0.570000       15.9994           0
     12869 MEMB     98       POPC     C1       CTL2    -0.800000E-01   12.0110           0
     12870 MEMB     98       POPC     HA       HAL2     0.900000E-01   1.00800           0
     12871 MEMB     98       POPC     HB       HAL2     0.900000E-01   1.00800           0
     12872 MEMB     98       POPC     C2       CTL1     0.170000       12.0110           0
     12873 MEMB     98       POPC     HS       HAL1     0.900000E-01   1.00800           0
     12874 MEMB     98       POPC     O21      OSL     -0.490000       15.9994           0
     12875 MEMB     98       POPC     C21      CL       0.900000       12.0110           0
     12876 MEMB     98       POPC     O22      OBL     -0.630000       15.9994           0
     12877 MEMB     98       POPC     C22      CTL2    -0.220000       12.0110           0
     12878 MEMB     98       POPC     H2R      HAL2     0.900000E-01   1.00800           0
     12879 MEMB     98       POPC     H2S      HAL2     0.900000E-01   1.00800           0
     12880 MEMB     98       POPC     C3       CTL2     0.800000E-01   12.0110           0
     12881 MEMB     98       POPC     HX       HAL2     0.900000E-01   1.00800           0
     12882 MEMB     98       POPC     HY       HAL2     0.900000E-01   1.00800           0
     12883 MEMB     98       POPC     O31      OSL     -0.490000       15.9994           0
     12884 MEMB     98       POPC     C31      CL       0.900000       12.0110           0
     12885 MEMB     98       POPC     O32      OBL     -0.630000       15.9994           0
     12886 MEMB     98       POPC     C32      CTL2    -0.220000       12.0110           0
     12887 MEMB     98       POPC     H2X      HAL2     0.900000E-01   1.00800           0
     12888 MEMB     98       POPC     H2Y      HAL2     0.900000E-01   1.00800           0
     12889 MEMB     98       POPC     C23      CTL2    -0.180000       12.0110           0
     12890 MEMB     98       POPC     H3R      HAL2     0.900000E-01   1.00800           0
     12891 MEMB     98       POPC     H3S      HAL2     0.900000E-01   1.00800           0
     12892 MEMB     98       POPC     C24      CTL2    -0.180000       12.0110           0
     12893 MEMB     98       POPC     H4R      HAL2     0.900000E-01   1.00800           0
     12894 MEMB     98       POPC     H4S      HAL2     0.900000E-01   1.00800           0
     12895 MEMB     98       POPC     C25      CTL2    -0.180000       12.0110           0
     12896 MEMB     98       POPC     H5R      HAL2     0.900000E-01   1.00800           0
     12897 MEMB     98       POPC     H5S      HAL2     0.900000E-01   1.00800           0
     12898 MEMB     98       POPC     C26      CTL2    -0.180000       12.0110           0
     12899 MEMB     98       POPC     H6R      HAL2     0.900000E-01   1.00800           0
     12900 MEMB     98       POPC     H6S      HAL2     0.900000E-01   1.00800           0
     12901 MEMB     98       POPC     C27      CTL2    -0.180000       12.0110           0
     12902 MEMB     98       POPC     H7R      HAL2     0.900000E-01   1.00800           0
     12903 MEMB     98       POPC     H7S      HAL2     0.900000E-01   1.00800           0
     12904 MEMB     98       POPC     C28      CTL2    -0.180000       12.0110           0
     12905 MEMB     98       POPC     H8R      HAL2     0.900000E-01   1.00800           0
     12906 MEMB     98       POPC     H8S      HAL2     0.900000E-01   1.00800           0
     12907 MEMB     98       POPC     C29      CEL1    -0.150000       12.0110           0
     12908 MEMB     98       POPC     H91      HEL1     0.150000       1.00800           0
     12909 MEMB     98       POPC     C210     CEL1    -0.150000       12.0110           0
     12910 MEMB     98       POPC     H101     HEL1     0.150000       1.00800           0
     12911 MEMB     98       POPC     C211     CTL2    -0.180000       12.0110           0
     12912 MEMB     98       POPC     H11R     HAL2     0.900000E-01   1.00800           0
     12913 MEMB     98       POPC     H11S     HAL2     0.900000E-01   1.00800           0
     12914 MEMB     98       POPC     C212     CTL2    -0.180000       12.0110           0
     12915 MEMB     98       POPC     H12R     HAL2     0.900000E-01   1.00800           0
     12916 MEMB     98       POPC     H12S     HAL2     0.900000E-01   1.00800           0
     12917 MEMB     98       POPC     C213     CTL2    -0.180000       12.0110           0
     12918 MEMB     98       POPC     H13R     HAL2     0.900000E-01   1.00800           0
     12919 MEMB     98       POPC     H13S     HAL2     0.900000E-01   1.00800           0
     12920 MEMB     98       POPC     C214     CTL2    -0.180000       12.0110           0
     12921 MEMB     98       POPC     H14R     HAL2     0.900000E-01   1.00800           0
     12922 MEMB     98       POPC     H14S     HAL2     0.900000E-01   1.00800           0
     12923 MEMB     98       POPC     C215     CTL2    -0.180000       12.0110           0
     12924 MEMB     98       POPC     H15R     HAL2     0.900000E-01   1.00800           0
     12925 MEMB     98       POPC     H15S     HAL2     0.900000E-01   1.00800           0
     12926 MEMB     98       POPC     C216     CTL2    -0.180000       12.0110           0
     12927 MEMB     98       POPC     H16R     HAL2     0.900000E-01   1.00800           0
     12928 MEMB     98       POPC     H16S     HAL2     0.900000E-01   1.00800           0
     12929 MEMB     98       POPC     C217     CTL2    -0.180000       12.0110           0
     12930 MEMB     98       POPC     H17R     HAL2     0.900000E-01   1.00800           0
     12931 MEMB     98       POPC     H17S     HAL2     0.900000E-01   1.00800           0
     12932 MEMB     98       POPC     C218     CTL3    -0.270000       12.0110           0
     12933 MEMB     98       POPC     H18R     HAL3     0.900000E-01   1.00800           0
     12934 MEMB     98       POPC     H18S     HAL3     0.900000E-01   1.00800           0
     12935 MEMB     98       POPC     H18T     HAL3     0.900000E-01   1.00800           0
     12936 MEMB     98       POPC     C33      CTL2    -0.180000       12.0110           0
     12937 MEMB     98       POPC     H3X      HAL2     0.900000E-01   1.00800           0
     12938 MEMB     98       POPC     H3Y      HAL2     0.900000E-01   1.00800           0
     12939 MEMB     98       POPC     C34      CTL2    -0.180000       12.0110           0
     12940 MEMB     98       POPC     H4X      HAL2     0.900000E-01   1.00800           0
     12941 MEMB     98       POPC     H4Y      HAL2     0.900000E-01   1.00800           0
     12942 MEMB     98       POPC     C35      CTL2    -0.180000       12.0110           0
     12943 MEMB     98       POPC     H5X      HAL2     0.900000E-01   1.00800           0
     12944 MEMB     98       POPC     H5Y      HAL2     0.900000E-01   1.00800           0
     12945 MEMB     98       POPC     C36      CTL2    -0.180000       12.0110           0
     12946 MEMB     98       POPC     H6X      HAL2     0.900000E-01   1.00800           0
     12947 MEMB     98       POPC     H6Y      HAL2     0.900000E-01   1.00800           0
     12948 MEMB     98       POPC     C37      CTL2    -0.180000       12.0110           0
     12949 MEMB     98       POPC     H7X      HAL2     0.900000E-01   1.00800           0
     12950 MEMB     98       POPC     H7Y      HAL2     0.900000E-01   1.00800           0
     12951 MEMB     98       POPC     C38      CTL2    -0.180000       12.0110           0
     12952 MEMB     98       POPC     H8X      HAL2     0.900000E-01   1.00800           0
     12953 MEMB     98       POPC     H8Y      HAL2     0.900000E-01   1.00800           0
     12954 MEMB     98       POPC     C39      CTL2    -0.180000       12.0110           0
     12955 MEMB     98       POPC     H9X      HAL2     0.900000E-01   1.00800           0
     12956 MEMB     98       POPC     H9Y      HAL2     0.900000E-01   1.00800           0
     12957 MEMB     98       POPC     C310     CTL2    -0.180000       12.0110           0
     12958 MEMB     98       POPC     H10X     HAL2     0.900000E-01   1.00800           0
     12959 MEMB     98       POPC     H10Y     HAL2     0.900000E-01   1.00800           0
     12960 MEMB     98       POPC     C311     CTL2    -0.180000       12.0110           0
     12961 MEMB     98       POPC     H11X     HAL2     0.900000E-01   1.00800           0
     12962 MEMB     98       POPC     H11Y     HAL2     0.900000E-01   1.00800           0
     12963 MEMB     98       POPC     C312     CTL2    -0.180000       12.0110           0
     12964 MEMB     98       POPC     H12X     HAL2     0.900000E-01   1.00800           0
     12965 MEMB     98       POPC     H12Y     HAL2     0.900000E-01   1.00800           0
     12966 MEMB     98       POPC     C313     CTL2    -0.180000       12.0110           0
     12967 MEMB     98       POPC     H13X     HAL2     0.900000E-01   1.00800           0
     12968 MEMB     98       POPC     H13Y     HAL2     0.900000E-01   1.00800           0
     12969 MEMB     98       POPC     C314     CTL2    -0.180000       12.0110           0
     12970 MEMB     98       POPC     H14X     HAL2     0.900000E-01   1.00800           0
     12971 MEMB     98       POPC     H14Y     HAL2     0.900000E-01   1.00800           0
     12972 MEMB     98       POPC     C315     CTL2    -0.180000       12.0110           0
     12973 MEMB     98       POPC     H15X     HAL2     0.900000E-01   1.00800           0
     12974 MEMB     98       POPC     H15Y     HAL2     0.900000E-01   1.00800           0
     12975 MEMB     98       POPC     C316     CTL3    -0.270000       12.0110           0
     12976 MEMB     98       POPC     H16X     HAL3     0.900000E-01   1.00800           0
     12977 MEMB     98       POPC     H16Y     HAL3     0.900000E-01   1.00800           0
     12978 MEMB     98       POPC     H16Z     HAL3     0.900000E-01   1.00800           0
     12979 MEMB     99       POPC     N        NTL     -0.600000       14.0070           0
     12980 MEMB     99       POPC     C12      CTL2    -0.100000       12.0110           0
     12981 MEMB     99       POPC     H12A     HL       0.250000       1.00800           0
     12982 MEMB     99       POPC     H12B     HL       0.250000       1.00800           0
     12983 MEMB     99       POPC     C13      CTL5    -0.350000       12.0110           0
     12984 MEMB     99       POPC     H13A     HL       0.250000       1.00800           0
     12985 MEMB     99       POPC     H13B     HL       0.250000       1.00800           0
     12986 MEMB     99       POPC     H13C     HL       0.250000       1.00800           0
     12987 MEMB     99       POPC     C14      CTL5    -0.350000       12.0110           0
     12988 MEMB     99       POPC     H14A     HL       0.250000       1.00800           0
     12989 MEMB     99       POPC     H14B     HL       0.250000       1.00800           0
     12990 MEMB     99       POPC     H14C     HL       0.250000       1.00800           0
     12991 MEMB     99       POPC     C15      CTL5    -0.350000       12.0110           0
     12992 MEMB     99       POPC     H15A     HL       0.250000       1.00800           0
     12993 MEMB     99       POPC     H15B     HL       0.250000       1.00800           0
     12994 MEMB     99       POPC     H15C     HL       0.250000       1.00800           0
     12995 MEMB     99       POPC     C11      CTL2    -0.800000E-01   12.0110           0
     12996 MEMB     99       POPC     H11A     HAL2     0.900000E-01   1.00800           0
     12997 MEMB     99       POPC     H11B     HAL2     0.900000E-01   1.00800           0
     12998 MEMB     99       POPC     P        PL        1.50000       30.9740           0
     12999 MEMB     99       POPC     O13      O2L     -0.780000       15.9994           0
     13000 MEMB     99       POPC     O14      O2L     -0.780000       15.9994           0
     13001 MEMB     99       POPC     O12      OSLP    -0.570000       15.9994           0
     13002 MEMB     99       POPC     O11      OSLP    -0.570000       15.9994           0
     13003 MEMB     99       POPC     C1       CTL2    -0.800000E-01   12.0110           0
     13004 MEMB     99       POPC     HA       HAL2     0.900000E-01   1.00800           0
     13005 MEMB     99       POPC     HB       HAL2     0.900000E-01   1.00800           0
     13006 MEMB     99       POPC     C2       CTL1     0.170000       12.0110           0
     13007 MEMB     99       POPC     HS       HAL1     0.900000E-01   1.00800           0
     13008 MEMB     99       POPC     O21      OSL     -0.490000       15.9994           0
     13009 MEMB     99       POPC     C21      CL       0.900000       12.0110           0
     13010 MEMB     99       POPC     O22      OBL     -0.630000       15.9994           0
     13011 MEMB     99       POPC     C22      CTL2    -0.220000       12.0110           0
     13012 MEMB     99       POPC     H2R      HAL2     0.900000E-01   1.00800           0
     13013 MEMB     99       POPC     H2S      HAL2     0.900000E-01   1.00800           0
     13014 MEMB     99       POPC     C3       CTL2     0.800000E-01   12.0110           0
     13015 MEMB     99       POPC     HX       HAL2     0.900000E-01   1.00800           0
     13016 MEMB     99       POPC     HY       HAL2     0.900000E-01   1.00800           0
     13017 MEMB     99       POPC     O31      OSL     -0.490000       15.9994           0
     13018 MEMB     99       POPC     C31      CL       0.900000       12.0110           0
     13019 MEMB     99       POPC     O32      OBL     -0.630000       15.9994           0
     13020 MEMB     99       POPC     C32      CTL2    -0.220000       12.0110           0
     13021 MEMB     99       POPC     H2X      HAL2     0.900000E-01   1.00800           0
     13022 MEMB     99       POPC     H2Y      HAL2     0.900000E-01   1.00800           0
     13023 MEMB     99       POPC     C23      CTL2    -0.180000       12.0110           0
     13024 MEMB     99       POPC     H3R      HAL2     0.900000E-01   1.00800           0
     13025 MEMB     99       POPC     H3S      HAL2     0.900000E-01   1.00800           0
     13026 MEMB     99       POPC     C24      CTL2    -0.180000       12.0110           0
     13027 MEMB     99       POPC     H4R      HAL2     0.900000E-01   1.00800           0
     13028 MEMB     99       POPC     H4S      HAL2     0.900000E-01   1.00800           0
     13029 MEMB     99       POPC     C25      CTL2    -0.180000       12.0110           0
     13030 MEMB     99       POPC     H5R      HAL2     0.900000E-01   1.00800           0
     13031 MEMB     99       POPC     H5S      HAL2     0.900000E-01   1.00800           0
     13032 MEMB     99       POPC     C26      CTL2    -0.180000       12.0110           0
     13033 MEMB     99       POPC     H6R      HAL2     0.900000E-01   1.00800           0
     13034 MEMB     99       POPC     H6S      HAL2     0.900000E-01   1.00800           0
     13035 MEMB     99       POPC     C27      CTL2    -0.180000       12.0110           0
     13036 MEMB     99       POPC     H7R      HAL2     0.900000E-01   1.00800           0
     13037 MEMB     99       POPC     H7S      HAL2     0.900000E-01   1.00800           0
     13038 MEMB     99       POPC     C28      CTL2    -0.180000       12.0110           0
     13039 MEMB     99       POPC     H8R      HAL2     0.900000E-01   1.00800           0
     13040 MEMB     99       POPC     H8S      HAL2     0.900000E-01   1.00800           0
     13041 MEMB     99       POPC     C29      CEL1    -0.150000       12.0110           0
     13042 MEMB     99       POPC     H91      HEL1     0.150000       1.00800           0
     13043 MEMB     99       POPC     C210     CEL1    -0.150000       12.0110           0
     13044 MEMB     99       POPC     H101     HEL1     0.150000       1.00800           0
     13045 MEMB     99       POPC     C211     CTL2    -0.180000       12.0110           0
     13046 MEMB     99       POPC     H11R     HAL2     0.900000E-01   1.00800           0
     13047 MEMB     99       POPC     H11S     HAL2     0.900000E-01   1.00800           0
     13048 MEMB     99       POPC     C212     CTL2    -0.180000       12.0110           0
     13049 MEMB     99       POPC     H12R     HAL2     0.900000E-01   1.00800           0
     13050 MEMB     99       POPC     H12S     HAL2     0.900000E-01   1.00800           0
     13051 MEMB     99       POPC     C213     CTL2    -0.180000       12.0110           0
     13052 MEMB     99       POPC     H13R     HAL2     0.900000E-01   1.00800           0
     13053 MEMB     99       POPC     H13S     HAL2     0.900000E-01   1.00800           0
     13054 MEMB     99       POPC     C214     CTL2    -0.180000       12.0110           0
     13055 MEMB     99       POPC     H14R     HAL2     0.900000E-01   1.00800           0
     13056 MEMB     99       POPC     H14S     HAL2     0.900000E-01   1.00800           0
     13057 MEMB     99       POPC     C215     CTL2    -0.180000       12.0110           0
     13058 MEMB     99       POPC     H15R     HAL2     0.900000E-01   1.00800           0
     13059 MEMB     99       POPC     H15S     HAL2     0.900000E-01   1.00800           0
     13060 MEMB     99       POPC     C216     CTL2    -0.180000       12.0110           0
     13061 MEMB     99       POPC     H16R     HAL2     0.900000E-01   1.00800           0
     13062 MEMB     99       POPC     H16S     HAL2     0.900000E-01   1.00800           0
     13063 MEMB     99       POPC     C217     CTL2    -0.180000       12.0110           0
     13064 MEMB     99       POPC     H17R     HAL2     0.900000E-01   1.00800           0
     13065 MEMB     99       POPC     H17S     HAL2     0.900000E-01   1.00800           0
     13066 MEMB     99       POPC     C218     CTL3    -0.270000       12.0110           0
     13067 MEMB     99       POPC     H18R     HAL3     0.900000E-01   1.00800           0
     13068 MEMB     99       POPC     H18S     HAL3     0.900000E-01   1.00800           0
     13069 MEMB     99       POPC     H18T     HAL3     0.900000E-01   1.00800           0
     13070 MEMB     99       POPC     C33      CTL2    -0.180000       12.0110           0
     13071 MEMB     99       POPC     H3X      HAL2     0.900000E-01   1.00800           0
     13072 MEMB     99       POPC     H3Y      HAL2     0.900000E-01   1.00800           0
     13073 MEMB     99       POPC     C34      CTL2    -0.180000       12.0110           0
     13074 MEMB     99       POPC     H4X      HAL2     0.900000E-01   1.00800           0
     13075 MEMB     99       POPC     H4Y      HAL2     0.900000E-01   1.00800           0
     13076 MEMB     99       POPC     C35      CTL2    -0.180000       12.0110           0
     13077 MEMB     99       POPC     H5X      HAL2     0.900000E-01   1.00800           0
     13078 MEMB     99       POPC     H5Y      HAL2     0.900000E-01   1.00800           0
     13079 MEMB     99       POPC     C36      CTL2    -0.180000       12.0110           0
     13080 MEMB     99       POPC     H6X      HAL2     0.900000E-01   1.00800           0
     13081 MEMB     99       POPC     H6Y      HAL2     0.900000E-01   1.00800           0
     13082 MEMB     99       POPC     C37      CTL2    -0.180000       12.0110           0
     13083 MEMB     99       POPC     H7X      HAL2     0.900000E-01   1.00800           0
     13084 MEMB     99       POPC     H7Y      HAL2     0.900000E-01   1.00800           0
     13085 MEMB     99       POPC     C38      CTL2    -0.180000       12.0110           0
     13086 MEMB     99       POPC     H8X      HAL2     0.900000E-01   1.00800           0
     13087 MEMB     99       POPC     H8Y      HAL2     0.900000E-01   1.00800           0
     13088 MEMB     99       POPC     C39      CTL2    -0.180000       12.0110           0
     13089 MEMB     99       POPC     H9X      HAL2     0.900000E-01   1.00800           0
     13090 MEMB     99       POPC     H9Y      HAL2     0.900000E-01   1.00800           0
     13091 MEMB     99       POPC     C310     CTL2    -0.180000       12.0110           0
     13092 MEMB     99       POPC     H10X     HAL2     0.900000E-01   1.00800           0
     13093 MEMB     99       POPC     H10Y     HAL2     0.900000E-01   1.00800           0
     13094 MEMB     99       POPC     C311     CTL2    -0.180000       12.0110           0
     13095 MEMB     99       POPC     H11X     HAL2     0.900000E-01   1.00800           0
     13096 MEMB     99       POPC     H11Y     HAL2     0.900000E-01   1.00800           0
     13097 MEMB     99       POPC     C312     CTL2    -0.180000       12.0110           0
     13098 MEMB     99       POPC     H12X     HAL2     0.900000E-01   1.00800           0
     13099 MEMB     99       POPC     H12Y     HAL2     0.900000E-01   1.00800           0
     13100 MEMB     99       POPC     C313     CTL2    -0.180000       12.0110           0
     13101 MEMB     99       POPC     H13X     HAL2     0.900000E-01   1.00800           0
     13102 MEMB     99       POPC     H13Y     HAL2     0.900000E-01   1.00800           0
     13103 MEMB     99       POPC     C314     CTL2    -0.180000       12.0110           0
     13104 MEMB     99       POPC     H14X     HAL2     0.900000E-01   1.00800           0
     13105 MEMB     99       POPC     H14Y     HAL2     0.900000E-01   1.00800           0
     13106 MEMB     99       POPC     C315     CTL2    -0.180000       12.0110           0
     13107 MEMB     99       POPC     H15X     HAL2     0.900000E-01   1.00800           0
     13108 MEMB     99       POPC     H15Y     HAL2     0.900000E-01   1.00800           0
     13109 MEMB     99       POPC     C316     CTL3    -0.270000       12.0110           0
     13110 MEMB     99       POPC     H16X     HAL3     0.900000E-01   1.00800           0
     13111 MEMB     99       POPC     H16Y     HAL3     0.900000E-01   1.00800           0
     13112 MEMB     99       POPC     H16Z     HAL3     0.900000E-01   1.00800           0
     13113 MEMB     100      POPC     N        NTL     -0.600000       14.0070           0
     13114 MEMB     100      POPC     C12      CTL2    -0.100000       12.0110           0
     13115 MEMB     100      POPC     H12A     HL       0.250000       1.00800           0
     13116 MEMB     100      POPC     H12B     HL       0.250000       1.00800           0
     13117 MEMB     100      POPC     C13      CTL5    -0.350000       12.0110           0
     13118 MEMB     100      POPC     H13A     HL       0.250000       1.00800           0
     13119 MEMB     100      POPC     H13B     HL       0.250000       1.00800           0
     13120 MEMB     100      POPC     H13C     HL       0.250000       1.00800           0
     13121 MEMB     100      POPC     C14      CTL5    -0.350000       12.0110           0
     13122 MEMB     100      POPC     H14A     HL       0.250000       1.00800           0
     13123 MEMB     100      POPC     H14B     HL       0.250000       1.00800           0
     13124 MEMB     100      POPC     H14C     HL       0.250000       1.00800           0
     13125 MEMB     100      POPC     C15      CTL5    -0.350000       12.0110           0
     13126 MEMB     100      POPC     H15A     HL       0.250000       1.00800           0
     13127 MEMB     100      POPC     H15B     HL       0.250000       1.00800           0
     13128 MEMB     100      POPC     H15C     HL       0.250000       1.00800           0
     13129 MEMB     100      POPC     C11      CTL2    -0.800000E-01   12.0110           0
     13130 MEMB     100      POPC     H11A     HAL2     0.900000E-01   1.00800           0
     13131 MEMB     100      POPC     H11B     HAL2     0.900000E-01   1.00800           0
     13132 MEMB     100      POPC     P        PL        1.50000       30.9740           0
     13133 MEMB     100      POPC     O13      O2L     -0.780000       15.9994           0
     13134 MEMB     100      POPC     O14      O2L     -0.780000       15.9994           0
     13135 MEMB     100      POPC     O12      OSLP    -0.570000       15.9994           0
     13136 MEMB     100      POPC     O11      OSLP    -0.570000       15.9994           0
     13137 MEMB     100      POPC     C1       CTL2    -0.800000E-01   12.0110           0
     13138 MEMB     100      POPC     HA       HAL2     0.900000E-01   1.00800           0
     13139 MEMB     100      POPC     HB       HAL2     0.900000E-01   1.00800           0
     13140 MEMB     100      POPC     C2       CTL1     0.170000       12.0110           0
     13141 MEMB     100      POPC     HS       HAL1     0.900000E-01   1.00800           0
     13142 MEMB     100      POPC     O21      OSL     -0.490000       15.9994           0
     13143 MEMB     100      POPC     C21      CL       0.900000       12.0110           0
     13144 MEMB     100      POPC     O22      OBL     -0.630000       15.9994           0
     13145 MEMB     100      POPC     C22      CTL2    -0.220000       12.0110           0
     13146 MEMB     100      POPC     H2R      HAL2     0.900000E-01   1.00800           0
     13147 MEMB     100      POPC     H2S      HAL2     0.900000E-01   1.00800           0
     13148 MEMB     100      POPC     C3       CTL2     0.800000E-01   12.0110           0
     13149 MEMB     100      POPC     HX       HAL2     0.900000E-01   1.00800           0
     13150 MEMB     100      POPC     HY       HAL2     0.900000E-01   1.00800           0
     13151 MEMB     100      POPC     O31      OSL     -0.490000       15.9994           0
     13152 MEMB     100      POPC     C31      CL       0.900000       12.0110           0
     13153 MEMB     100      POPC     O32      OBL     -0.630000       15.9994           0
     13154 MEMB     100      POPC     C32      CTL2    -0.220000       12.0110           0
     13155 MEMB     100      POPC     H2X      HAL2     0.900000E-01   1.00800           0
     13156 MEMB     100      POPC     H2Y      HAL2     0.900000E-01   1.00800           0
     13157 MEMB     100      POPC     C23      CTL2    -0.180000       12.0110           0
     13158 MEMB     100      POPC     H3R      HAL2     0.900000E-01   1.00800           0
     13159 MEMB     100      POPC     H3S      HAL2     0.900000E-01   1.00800           0
     13160 MEMB     100      POPC     C24      CTL2    -0.180000       12.0110           0
     13161 MEMB     100      POPC     H4R      HAL2     0.900000E-01   1.00800           0
     13162 MEMB     100      POPC     H4S      HAL2     0.900000E-01   1.00800           0
     13163 MEMB     100      POPC     C25      CTL2    -0.180000       12.0110           0
     13164 MEMB     100      POPC     H5R      HAL2     0.900000E-01   1.00800           0
     13165 MEMB     100      POPC     H5S      HAL2     0.900000E-01   1.00800           0
     13166 MEMB     100      POPC     C26      CTL2    -0.180000       12.0110           0
     13167 MEMB     100      POPC     H6R      HAL2     0.900000E-01   1.00800           0
     13168 MEMB     100      POPC     H6S      HAL2     0.900000E-01   1.00800           0
     13169 MEMB     100      POPC     C27      CTL2    -0.180000       12.0110           0
     13170 MEMB     100      POPC     H7R      HAL2     0.900000E-01   1.00800           0
     13171 MEMB     100      POPC     H7S      HAL2     0.900000E-01   1.00800           0
     13172 MEMB     100      POPC     C28      CTL2    -0.180000       12.0110           0
     13173 MEMB     100      POPC     H8R      HAL2     0.900000E-01   1.00800           0
     13174 MEMB     100      POPC     H8S      HAL2     0.900000E-01   1.00800           0
     13175 MEMB     100      POPC     C29      CEL1    -0.150000       12.0110           0
     13176 MEMB     100      POPC     H91      HEL1     0.150000       1.00800           0
     13177 MEMB     100      POPC     C210     CEL1    -0.150000       12.0110           0
     13178 MEMB     100      POPC     H101     HEL1     0.150000       1.00800           0
     13179 MEMB     100      POPC     C211     CTL2    -0.180000       12.0110           0
     13180 MEMB     100      POPC     H11R     HAL2     0.900000E-01   1.00800           0
     13181 MEMB     100      POPC     H11S     HAL2     0.900000E-01   1.00800           0
     13182 MEMB     100      POPC     C212     CTL2    -0.180000       12.0110           0
     13183 MEMB     100      POPC     H12R     HAL2     0.900000E-01   1.00800           0
     13184 MEMB     100      POPC     H12S     HAL2     0.900000E-01   1.00800           0
     13185 MEMB     100      POPC     C213     CTL2    -0.180000       12.0110           0
     13186 MEMB     100      POPC     H13R     HAL2     0.900000E-01   1.00800           0
     13187 MEMB     100      POPC     H13S     HAL2     0.900000E-01   1.00800           0
     13188 MEMB     100      POPC     C214     CTL2    -0.180000       12.0110           0
     13189 MEMB     100      POPC     H14R     HAL2     0.900000E-01   1.00800           0
     13190 MEMB     100      POPC     H14S     HAL2     0.900000E-01   1.00800           0
     13191 MEMB     100      POPC     C215     CTL2    -0.180000       12.0110           0
     13192 MEMB     100      POPC     H15R     HAL2     0.900000E-01   1.00800           0
     13193 MEMB     100      POPC     H15S     HAL2     0.900000E-01   1.00800           0
     13194 MEMB     100      POPC     C216     CTL2    -0.180000       12.0110           0
     13195 MEMB     100      POPC     H16R     HAL2     0.900000E-01   1.00800           0
     13196 MEMB     100      POPC     H16S     HAL2     0.900000E-01   1.00800           0
     13197 MEMB     100      POPC     C217     CTL2    -0.180000       12.0110           0
     13198 MEMB     100      POPC     H17R     HAL2     0.900000E-01   1.00800           0
     13199 MEMB     100      POPC     H17S     HAL2     0.900000E-01   1.00800           0
     13200 MEMB     100      POPC     C218     CTL3    -0.270000       12.0110           0
     13201 MEMB     100      POPC     H18R     HAL3     0.900000E-01   1.00800           0
     13202 MEMB     100      POPC     H18S     HAL3     0.900000E-01   1.00800           0
     13203 MEMB     100      POPC     H18T     HAL3     0.900000E-01   1.00800           0
     13204 MEMB     100      POPC     C33      CTL2    -0.180000       12.0110           0
     13205 MEMB     100      POPC     H3X      HAL2     0.900000E-01   1.00800           0
     13206 MEMB     100      POPC     H3Y      HAL2     0.900000E-01   1.00800           0
     13207 MEMB     100      POPC     C34      CTL2    -0.180000       12.0110           0
     13208 MEMB     100      POPC     H4X      HAL2     0.900000E-01   1.00800           0
     13209 MEMB     100      POPC     H4Y      HAL2     0.900000E-01   1.00800           0
     13210 MEMB     100      POPC     C35      CTL2    -0.180000       12.0110           0
     13211 MEMB     100      POPC     H5X      HAL2     0.900000E-01   1.00800           0
     13212 MEMB     100      POPC     H5Y      HAL2     0.900000E-01   1.00800           0
     13213 MEMB     100      POPC     C36      CTL2    -0.180000       12.0110           0
     13214 MEMB     100      POPC     H6X      HAL2     0.900000E-01   1.00800           0
     13215 MEMB     100      POPC     H6Y      HAL2     0.900000E-01   1.00800           0
     13216 MEMB     100      POPC     C37      CTL2    -0.180000       12.0110           0
     13217 MEMB     100      POPC     H7X      HAL2     0.900000E-01   1.00800           0
     13218 MEMB     100      POPC     H7Y      HAL2     0.900000E-01   1.00800           0
     13219 MEMB     100      POPC     C38      CTL2    -0.180000       12.0110           0
     13220 MEMB     100      POPC     H8X      HAL2     0.900000E-01   1.00800           0
     13221 MEMB     100      POPC     H8Y      HAL2     0.900000E-01   1.00800           0
     13222 MEMB     100      POPC     C39      CTL2    -0.180000       12.0110           0
     13223 MEMB     100      POPC     H9X      HAL2     0.900000E-01   1.00800           0
     13224 MEMB     100      POPC     H9Y      HAL2     0.900000E-01   1.00800           0
     13225 MEMB     100      POPC     C310     CTL2    -0.180000       12.0110           0
     13226 MEMB     100      POPC     H10X     HAL2     0.900000E-01   1.00800           0
     13227 MEMB     100      POPC     H10Y     HAL2     0.900000E-01   1.00800           0
     13228 MEMB     100      POPC     C311     CTL2    -0.180000       12.0110           0
     13229 MEMB     100      POPC     H11X     HAL2     0.900000E-01   1.00800           0
     13230 MEMB     100      POPC     H11Y     HAL2     0.900000E-01   1.00800           0
     13231 MEMB     100      POPC     C312     CTL2    -0.180000       12.0110           0
     13232 MEMB     100      POPC     H12X     HAL2     0.900000E-01   1.00800           0
     13233 MEMB     100      POPC     H12Y     HAL2     0.900000E-01   1.00800           0
     13234 MEMB     100      POPC     C313     CTL2    -0.180000       12.0110           0
     13235 MEMB     100      POPC     H13X     HAL2     0.900000E-01   1.00800           0
     13236 MEMB     100      POPC     H13Y     HAL2     0.900000E-01   1.00800           0
     13237 MEMB     100      POPC     C314     CTL2    -0.180000       12.0110           0
     13238 MEMB     100      POPC     H14X     HAL2     0.900000E-01   1.00800           0
     13239 MEMB     100      POPC     H14Y     HAL2     0.900000E-01   1.00800           0
     13240 MEMB     100      POPC     C315     CTL2    -0.180000       12.0110           0
     13241 MEMB     100      POPC     H15X     HAL2     0.900000E-01   1.00800           0
     13242 MEMB     100      POPC     H15Y     HAL2     0.900000E-01   1.00800           0
     13243 MEMB     100      POPC     C316     CTL3    -0.270000       12.0110           0
     13244 MEMB     100      POPC     H16X     HAL3     0.900000E-01   1.00800           0
     13245 MEMB     100      POPC     H16Y     HAL3     0.900000E-01   1.00800           0
     13246 MEMB     100      POPC     H16Z     HAL3     0.900000E-01   1.00800           0
     13247 MEMB     101      POPC     N        NTL     -0.600000       14.0070           0
     13248 MEMB     101      POPC     C12      CTL2    -0.100000       12.0110           0
     13249 MEMB     101      POPC     H12A     HL       0.250000       1.00800           0
     13250 MEMB     101      POPC     H12B     HL       0.250000       1.00800           0
     13251 MEMB     101      POPC     C13      CTL5    -0.350000       12.0110           0
     13252 MEMB     101      POPC     H13A     HL       0.250000       1.00800           0
     13253 MEMB     101      POPC     H13B     HL       0.250000       1.00800           0
     13254 MEMB     101      POPC     H13C     HL       0.250000       1.00800           0
     13255 MEMB     101      POPC     C14      CTL5    -0.350000       12.0110           0
     13256 MEMB     101      POPC     H14A     HL       0.250000       1.00800           0
     13257 MEMB     101      POPC     H14B     HL       0.250000       1.00800           0
     13258 MEMB     101      POPC     H14C     HL       0.250000       1.00800           0
     13259 MEMB     101      POPC     C15      CTL5    -0.350000       12.0110           0
     13260 MEMB     101      POPC     H15A     HL       0.250000       1.00800           0
     13261 MEMB     101      POPC     H15B     HL       0.250000       1.00800           0
     13262 MEMB     101      POPC     H15C     HL       0.250000       1.00800           0
     13263 MEMB     101      POPC     C11      CTL2    -0.800000E-01   12.0110           0
     13264 MEMB     101      POPC     H11A     HAL2     0.900000E-01   1.00800           0
     13265 MEMB     101      POPC     H11B     HAL2     0.900000E-01   1.00800           0
     13266 MEMB     101      POPC     P        PL        1.50000       30.9740           0
     13267 MEMB     101      POPC     O13      O2L     -0.780000       15.9994           0
     13268 MEMB     101      POPC     O14      O2L     -0.780000       15.9994           0
     13269 MEMB     101      POPC     O12      OSLP    -0.570000       15.9994           0
     13270 MEMB     101      POPC     O11      OSLP    -0.570000       15.9994           0
     13271 MEMB     101      POPC     C1       CTL2    -0.800000E-01   12.0110           0
     13272 MEMB     101      POPC     HA       HAL2     0.900000E-01   1.00800           0
     13273 MEMB     101      POPC     HB       HAL2     0.900000E-01   1.00800           0
     13274 MEMB     101      POPC     C2       CTL1     0.170000       12.0110           0
     13275 MEMB     101      POPC     HS       HAL1     0.900000E-01   1.00800           0
     13276 MEMB     101      POPC     O21      OSL     -0.490000       15.9994           0
     13277 MEMB     101      POPC     C21      CL       0.900000       12.0110           0
     13278 MEMB     101      POPC     O22      OBL     -0.630000       15.9994           0
     13279 MEMB     101      POPC     C22      CTL2    -0.220000       12.0110           0
     13280 MEMB     101      POPC     H2R      HAL2     0.900000E-01   1.00800           0
     13281 MEMB     101      POPC     H2S      HAL2     0.900000E-01   1.00800           0
     13282 MEMB     101      POPC     C3       CTL2     0.800000E-01   12.0110           0
     13283 MEMB     101      POPC     HX       HAL2     0.900000E-01   1.00800           0
     13284 MEMB     101      POPC     HY       HAL2     0.900000E-01   1.00800           0
     13285 MEMB     101      POPC     O31      OSL     -0.490000       15.9994           0
     13286 MEMB     101      POPC     C31      CL       0.900000       12.0110           0
     13287 MEMB     101      POPC     O32      OBL     -0.630000       15.9994           0
     13288 MEMB     101      POPC     C32      CTL2    -0.220000       12.0110           0
     13289 MEMB     101      POPC     H2X      HAL2     0.900000E-01   1.00800           0
     13290 MEMB     101      POPC     H2Y      HAL2     0.900000E-01   1.00800           0
     13291 MEMB     101      POPC     C23      CTL2    -0.180000       12.0110           0
     13292 MEMB     101      POPC     H3R      HAL2     0.900000E-01   1.00800           0
     13293 MEMB     101      POPC     H3S      HAL2     0.900000E-01   1.00800           0
     13294 MEMB     101      POPC     C24      CTL2    -0.180000       12.0110           0
     13295 MEMB     101      POPC     H4R      HAL2     0.900000E-01   1.00800           0
     13296 MEMB     101      POPC     H4S      HAL2     0.900000E-01   1.00800           0
     13297 MEMB     101      POPC     C25      CTL2    -0.180000       12.0110           0
     13298 MEMB     101      POPC     H5R      HAL2     0.900000E-01   1.00800           0
     13299 MEMB     101      POPC     H5S      HAL2     0.900000E-01   1.00800           0
     13300 MEMB     101      POPC     C26      CTL2    -0.180000       12.0110           0
     13301 MEMB     101      POPC     H6R      HAL2     0.900000E-01   1.00800           0
     13302 MEMB     101      POPC     H6S      HAL2     0.900000E-01   1.00800           0
     13303 MEMB     101      POPC     C27      CTL2    -0.180000       12.0110           0
     13304 MEMB     101      POPC     H7R      HAL2     0.900000E-01   1.00800           0
     13305 MEMB     101      POPC     H7S      HAL2     0.900000E-01   1.00800           0
     13306 MEMB     101      POPC     C28      CTL2    -0.180000       12.0110           0
     13307 MEMB     101      POPC     H8R      HAL2     0.900000E-01   1.00800           0
     13308 MEMB     101      POPC     H8S      HAL2     0.900000E-01   1.00800           0
     13309 MEMB     101      POPC     C29      CEL1    -0.150000       12.0110           0
     13310 MEMB     101      POPC     H91      HEL1     0.150000       1.00800           0
     13311 MEMB     101      POPC     C210     CEL1    -0.150000       12.0110           0
     13312 MEMB     101      POPC     H101     HEL1     0.150000       1.00800           0
     13313 MEMB     101      POPC     C211     CTL2    -0.180000       12.0110           0
     13314 MEMB     101      POPC     H11R     HAL2     0.900000E-01   1.00800           0
     13315 MEMB     101      POPC     H11S     HAL2     0.900000E-01   1.00800           0
     13316 MEMB     101      POPC     C212     CTL2    -0.180000       12.0110           0
     13317 MEMB     101      POPC     H12R     HAL2     0.900000E-01   1.00800           0
     13318 MEMB     101      POPC     H12S     HAL2     0.900000E-01   1.00800           0
     13319 MEMB     101      POPC     C213     CTL2    -0.180000       12.0110           0
     13320 MEMB     101      POPC     H13R     HAL2     0.900000E-01   1.00800           0
     13321 MEMB     101      POPC     H13S     HAL2     0.900000E-01   1.00800           0
     13322 MEMB     101      POPC     C214     CTL2    -0.180000       12.0110           0
     13323 MEMB     101      POPC     H14R     HAL2     0.900000E-01   1.00800           0
     13324 MEMB     101      POPC     H14S     HAL2     0.900000E-01   1.00800           0
     13325 MEMB     101      POPC     C215     CTL2    -0.180000       12.0110           0
     13326 MEMB     101      POPC     H15R     HAL2     0.900000E-01   1.00800           0
     13327 MEMB     101      POPC     H15S     HAL2     0.900000E-01   1.00800           0
     13328 MEMB     101      POPC     C216     CTL2    -0.180000       12.0110           0
     13329 MEMB     101      POPC     H16R     HAL2     0.900000E-01   1.00800           0
     13330 MEMB     101      POPC     H16S     HAL2     0.900000E-01   1.00800           0
     13331 MEMB     101      POPC     C217     CTL2    -0.180000       12.0110           0
     13332 MEMB     101      POPC     H17R     HAL2     0.900000E-01   1.00800           0
     13333 MEMB     101      POPC     H17S     HAL2     0.900000E-01   1.00800           0
     13334 MEMB     101      POPC     C218     CTL3    -0.270000       12.0110           0
     13335 MEMB     101      POPC     H18R     HAL3     0.900000E-01   1.00800           0
     13336 MEMB     101      POPC     H18S     HAL3     0.900000E-01   1.00800           0
     13337 MEMB     101      POPC     H18T     HAL3     0.900000E-01   1.00800           0
     13338 MEMB     101      POPC     C33      CTL2    -0.180000       12.0110           0
     13339 MEMB     101      POPC     H3X      HAL2     0.900000E-01   1.00800           0
     13340 MEMB     101      POPC     H3Y      HAL2     0.900000E-01   1.00800           0
     13341 MEMB     101      POPC     C34      CTL2    -0.180000       12.0110           0
     13342 MEMB     101      POPC     H4X      HAL2     0.900000E-01   1.00800           0
     13343 MEMB     101      POPC     H4Y      HAL2     0.900000E-01   1.00800           0
     13344 MEMB     101      POPC     C35      CTL2    -0.180000       12.0110           0
     13345 MEMB     101      POPC     H5X      HAL2     0.900000E-01   1.00800           0
     13346 MEMB     101      POPC     H5Y      HAL2     0.900000E-01   1.00800           0
     13347 MEMB     101      POPC     C36      CTL2    -0.180000       12.0110           0
     13348 MEMB     101      POPC     H6X      HAL2     0.900000E-01   1.00800           0
     13349 MEMB     101      POPC     H6Y      HAL2     0.900000E-01   1.00800           0
     13350 MEMB     101      POPC     C37      CTL2    -0.180000       12.0110           0
     13351 MEMB     101      POPC     H7X      HAL2     0.900000E-01   1.00800           0
     13352 MEMB     101      POPC     H7Y      HAL2     0.900000E-01   1.00800           0
     13353 MEMB     101      POPC     C38      CTL2    -0.180000       12.0110           0
     13354 MEMB     101      POPC     H8X      HAL2     0.900000E-01   1.00800           0
     13355 MEMB     101      POPC     H8Y      HAL2     0.900000E-01   1.00800           0
     13356 MEMB     101      POPC     C39      CTL2    -0.180000       12.0110           0
     13357 MEMB     101      POPC     H9X      HAL2     0.900000E-01   1.00800           0
     13358 MEMB     101      POPC     H9Y      HAL2     0.900000E-01   1.00800           0
     13359 MEMB     101      POPC     C310     CTL2    -0.180000       12.0110           0
     13360 MEMB     101      POPC     H10X     HAL2     0.900000E-01   1.00800           0
     13361 MEMB     101      POPC     H10Y     HAL2     0.900000E-01   1.00800           0
     13362 MEMB     101      POPC     C311     CTL2    -0.180000       12.0110           0
     13363 MEMB     101      POPC     H11X     HAL2     0.900000E-01   1.00800           0
     13364 MEMB     101      POPC     H11Y     HAL2     0.900000E-01   1.00800           0
     13365 MEMB     101      POPC     C312     CTL2    -0.180000       12.0110           0
     13366 MEMB     101      POPC     H12X     HAL2     0.900000E-01   1.00800           0
     13367 MEMB     101      POPC     H12Y     HAL2     0.900000E-01   1.00800           0
     13368 MEMB     101      POPC     C313     CTL2    -0.180000       12.0110           0
     13369 MEMB     101      POPC     H13X     HAL2     0.900000E-01   1.00800           0
     13370 MEMB     101      POPC     H13Y     HAL2     0.900000E-01   1.00800           0
     13371 MEMB     101      POPC     C314     CTL2    -0.180000       12.0110           0
     13372 MEMB     101      POPC     H14X     HAL2     0.900000E-01   1.00800           0
     13373 MEMB     101      POPC     H14Y     HAL2     0.900000E-01   1.00800           0
     13374 MEMB     101      POPC     C315     CTL2    -0.180000       12.0110           0
     13375 MEMB     101      POPC     H15X     HAL2     0.900000E-01   1.00800           0
     13376 MEMB     101      POPC     H15Y     HAL2     0.900000E-01   1.00800           0
     13377 MEMB     101      POPC     C316     CTL3    -0.270000       12.0110           0
     13378 MEMB     101      POPC     H16X     HAL3     0.900000E-01   1.00800           0
     13379 MEMB     101      POPC     H16Y     HAL3     0.900000E-01   1.00800           0
     13380 MEMB     101      POPC     H16Z     HAL3     0.900000E-01   1.00800           0
     13381 MEMB     102      POPC     N        NTL     -0.600000       14.0070           0
     13382 MEMB     102      POPC     C12      CTL2    -0.100000       12.0110           0
     13383 MEMB     102      POPC     H12A     HL       0.250000       1.00800           0
     13384 MEMB     102      POPC     H12B     HL       0.250000       1.00800           0
     13385 MEMB     102      POPC     C13      CTL5    -0.350000       12.0110           0
     13386 MEMB     102      POPC     H13A     HL       0.250000       1.00800           0
     13387 MEMB     102      POPC     H13B     HL       0.250000       1.00800           0
     13388 MEMB     102      POPC     H13C     HL       0.250000       1.00800           0
     13389 MEMB     102      POPC     C14      CTL5    -0.350000       12.0110           0
     13390 MEMB     102      POPC     H14A     HL       0.250000       1.00800           0
     13391 MEMB     102      POPC     H14B     HL       0.250000       1.00800           0
     13392 MEMB     102      POPC     H14C     HL       0.250000       1.00800           0
     13393 MEMB     102      POPC     C15      CTL5    -0.350000       12.0110           0
     13394 MEMB     102      POPC     H15A     HL       0.250000       1.00800           0
     13395 MEMB     102      POPC     H15B     HL       0.250000       1.00800           0
     13396 MEMB     102      POPC     H15C     HL       0.250000       1.00800           0
     13397 MEMB     102      POPC     C11      CTL2    -0.800000E-01   12.0110           0
     13398 MEMB     102      POPC     H11A     HAL2     0.900000E-01   1.00800           0
     13399 MEMB     102      POPC     H11B     HAL2     0.900000E-01   1.00800           0
     13400 MEMB     102      POPC     P        PL        1.50000       30.9740           0
     13401 MEMB     102      POPC     O13      O2L     -0.780000       15.9994           0
     13402 MEMB     102      POPC     O14      O2L     -0.780000       15.9994           0
     13403 MEMB     102      POPC     O12      OSLP    -0.570000       15.9994           0
     13404 MEMB     102      POPC     O11      OSLP    -0.570000       15.9994           0
     13405 MEMB     102      POPC     C1       CTL2    -0.800000E-01   12.0110           0
     13406 MEMB     102      POPC     HA       HAL2     0.900000E-01   1.00800           0
     13407 MEMB     102      POPC     HB       HAL2     0.900000E-01   1.00800           0
     13408 MEMB     102      POPC     C2       CTL1     0.170000       12.0110           0
     13409 MEMB     102      POPC     HS       HAL1     0.900000E-01   1.00800           0
     13410 MEMB     102      POPC     O21      OSL     -0.490000       15.9994           0
     13411 MEMB     102      POPC     C21      CL       0.900000       12.0110           0
     13412 MEMB     102      POPC     O22      OBL     -0.630000       15.9994           0
     13413 MEMB     102      POPC     C22      CTL2    -0.220000       12.0110           0
     13414 MEMB     102      POPC     H2R      HAL2     0.900000E-01   1.00800           0
     13415 MEMB     102      POPC     H2S      HAL2     0.900000E-01   1.00800           0
     13416 MEMB     102      POPC     C3       CTL2     0.800000E-01   12.0110           0
     13417 MEMB     102      POPC     HX       HAL2     0.900000E-01   1.00800           0
     13418 MEMB     102      POPC     HY       HAL2     0.900000E-01   1.00800           0
     13419 MEMB     102      POPC     O31      OSL     -0.490000       15.9994           0
     13420 MEMB     102      POPC     C31      CL       0.900000       12.0110           0
     13421 MEMB     102      POPC     O32      OBL     -0.630000       15.9994           0
     13422 MEMB     102      POPC     C32      CTL2    -0.220000       12.0110           0
     13423 MEMB     102      POPC     H2X      HAL2     0.900000E-01   1.00800           0
     13424 MEMB     102      POPC     H2Y      HAL2     0.900000E-01   1.00800           0
     13425 MEMB     102      POPC     C23      CTL2    -0.180000       12.0110           0
     13426 MEMB     102      POPC     H3R      HAL2     0.900000E-01   1.00800           0
     13427 MEMB     102      POPC     H3S      HAL2     0.900000E-01   1.00800           0
     13428 MEMB     102      POPC     C24      CTL2    -0.180000       12.0110           0
     13429 MEMB     102      POPC     H4R      HAL2     0.900000E-01   1.00800           0
     13430 MEMB     102      POPC     H4S      HAL2     0.900000E-01   1.00800           0
     13431 MEMB     102      POPC     C25      CTL2    -0.180000       12.0110           0
     13432 MEMB     102      POPC     H5R      HAL2     0.900000E-01   1.00800           0
     13433 MEMB     102      POPC     H5S      HAL2     0.900000E-01   1.00800           0
     13434 MEMB     102      POPC     C26      CTL2    -0.180000       12.0110           0
     13435 MEMB     102      POPC     H6R      HAL2     0.900000E-01   1.00800           0
     13436 MEMB     102      POPC     H6S      HAL2     0.900000E-01   1.00800           0
     13437 MEMB     102      POPC     C27      CTL2    -0.180000       12.0110           0
     13438 MEMB     102      POPC     H7R      HAL2     0.900000E-01   1.00800           0
     13439 MEMB     102      POPC     H7S      HAL2     0.900000E-01   1.00800           0
     13440 MEMB     102      POPC     C28      CTL2    -0.180000       12.0110           0
     13441 MEMB     102      POPC     H8R      HAL2     0.900000E-01   1.00800           0
     13442 MEMB     102      POPC     H8S      HAL2     0.900000E-01   1.00800           0
     13443 MEMB     102      POPC     C29      CEL1    -0.150000       12.0110           0
     13444 MEMB     102      POPC     H91      HEL1     0.150000       1.00800           0
     13445 MEMB     102      POPC     C210     CEL1    -0.150000       12.0110           0
     13446 MEMB     102      POPC     H101     HEL1     0.150000       1.00800           0
     13447 MEMB     102      POPC     C211     CTL2    -0.180000       12.0110           0
     13448 MEMB     102      POPC     H11R     HAL2     0.900000E-01   1.00800           0
     13449 MEMB     102      POPC     H11S     HAL2     0.900000E-01   1.00800           0
     13450 MEMB     102      POPC     C212     CTL2    -0.180000       12.0110           0
     13451 MEMB     102      POPC     H12R     HAL2     0.900000E-01   1.00800           0
     13452 MEMB     102      POPC     H12S     HAL2     0.900000E-01   1.00800           0
     13453 MEMB     102      POPC     C213     CTL2    -0.180000       12.0110           0
     13454 MEMB     102      POPC     H13R     HAL2     0.900000E-01   1.00800           0
     13455 MEMB     102      POPC     H13S     HAL2     0.900000E-01   1.00800           0
     13456 MEMB     102      POPC     C214     CTL2    -0.180000       12.0110           0
     13457 MEMB     102      POPC     H14R     HAL2     0.900000E-01   1.00800           0
     13458 MEMB     102      POPC     H14S     HAL2     0.900000E-01   1.00800           0
     13459 MEMB     102      POPC     C215     CTL2    -0.180000       12.0110           0
     13460 MEMB     102      POPC     H15R     HAL2     0.900000E-01   1.00800           0
     13461 MEMB     102      POPC     H15S     HAL2     0.900000E-01   1.00800           0
     13462 MEMB     102      POPC     C216     CTL2    -0.180000       12.0110           0
     13463 MEMB     102      POPC     H16R     HAL2     0.900000E-01   1.00800           0
     13464 MEMB     102      POPC     H16S     HAL2     0.900000E-01   1.00800           0
     13465 MEMB     102      POPC     C217     CTL2    -0.180000       12.0110           0
     13466 MEMB     102      POPC     H17R     HAL2     0.900000E-01   1.00800           0
     13467 MEMB     102      POPC     H17S     HAL2     0.900000E-01   1.00800           0
     13468 MEMB     102      POPC     C218     CTL3    -0.270000       12.0110           0
     13469 MEMB     102      POPC     H18R     HAL3     0.900000E-01   1.00800           0
     13470 MEMB     102      POPC     H18S     HAL3     0.900000E-01   1.00800           0
     13471 MEMB     102      POPC     H18T     HAL3     0.900000E-01   1.00800           0
     13472 MEMB     102      POPC     C33      CTL2    -0.180000       12.0110           0
     13473 MEMB     102      POPC     H3X      HAL2     0.900000E-01   1.00800           0
     13474 MEMB     102      POPC     H3Y      HAL2     0.900000E-01   1.00800           0
     13475 MEMB     102      POPC     C34      CTL2    -0.180000       12.0110           0
     13476 MEMB     102      POPC     H4X      HAL2     0.900000E-01   1.00800           0
     13477 MEMB     102      POPC     H4Y      HAL2     0.900000E-01   1.00800           0
     13478 MEMB     102      POPC     C35      CTL2    -0.180000       12.0110           0
     13479 MEMB     102      POPC     H5X      HAL2     0.900000E-01   1.00800           0
     13480 MEMB     102      POPC     H5Y      HAL2     0.900000E-01   1.00800           0
     13481 MEMB     102      POPC     C36      CTL2    -0.180000       12.0110           0
     13482 MEMB     102      POPC     H6X      HAL2     0.900000E-01   1.00800           0
     13483 MEMB     102      POPC     H6Y      HAL2     0.900000E-01   1.00800           0
     13484 MEMB     102      POPC     C37      CTL2    -0.180000       12.0110           0
     13485 MEMB     102      POPC     H7X      HAL2     0.900000E-01   1.00800           0
     13486 MEMB     102      POPC     H7Y      HAL2     0.900000E-01   1.00800           0
     13487 MEMB     102      POPC     C38      CTL2    -0.180000       12.0110           0
     13488 MEMB     102      POPC     H8X      HAL2     0.900000E-01   1.00800           0
     13489 MEMB     102      POPC     H8Y      HAL2     0.900000E-01   1.00800           0
     13490 MEMB     102      POPC     C39      CTL2    -0.180000       12.0110           0
     13491 MEMB     102      POPC     H9X      HAL2     0.900000E-01   1.00800           0
     13492 MEMB     102      POPC     H9Y      HAL2     0.900000E-01   1.00800           0
     13493 MEMB     102      POPC     C310     CTL2    -0.180000       12.0110           0
     13494 MEMB     102      POPC     H10X     HAL2     0.900000E-01   1.00800           0
     13495 MEMB     102      POPC     H10Y     HAL2     0.900000E-01   1.00800           0
     13496 MEMB     102      POPC     C311     CTL2    -0.180000       12.0110           0
     13497 MEMB     102      POPC     H11X     HAL2     0.900000E-01   1.00800           0
     13498 MEMB     102      POPC     H11Y     HAL2     0.900000E-01   1.00800           0
     13499 MEMB     102      POPC     C312     CTL2    -0.180000       12.0110           0
     13500 MEMB     102      POPC     H12X     HAL2     0.900000E-01   1.00800           0
     13501 MEMB     102      POPC     H12Y     HAL2     0.900000E-01   1.00800           0
     13502 MEMB     102      POPC     C313     CTL2    -0.180000       12.0110           0
     13503 MEMB     102      POPC     H13X     HAL2     0.900000E-01   1.00800           0
     13504 MEMB     102      POPC     H13Y     HAL2     0.900000E-01   1.00800           0
     13505 MEMB     102      POPC     C314     CTL2    -0.180000       12.0110           0
     13506 MEMB     102      POPC     H14X     HAL2     0.900000E-01   1.00800           0
     13507 MEMB     102      POPC     H14Y     HAL2     0.900000E-01   1.00800           0
     13508 MEMB     102      POPC     C315     CTL2    -0.180000       12.0110           0
     13509 MEMB     102      POPC     H15X     HAL2     0.900000E-01   1.00800           0
     13510 MEMB     102      POPC     H15Y     HAL2     0.900000E-01   1.00800           0
     13511 MEMB     102      POPC     C316     CTL3    -0.270000       12.0110           0
     13512 MEMB     102      POPC     H16X     HAL3     0.900000E-01   1.00800           0
     13513 MEMB     102      POPC     H16Y     HAL3     0.900000E-01   1.00800           0
     13514 MEMB     102      POPC     H16Z     HAL3     0.900000E-01   1.00800           0
     13515 MEMB     103      POPC     N        NTL     -0.600000       14.0070           0
     13516 MEMB     103      POPC     C12      CTL2    -0.100000       12.0110           0
     13517 MEMB     103      POPC     H12A     HL       0.250000       1.00800           0
     13518 MEMB     103      POPC     H12B     HL       0.250000       1.00800           0
     13519 MEMB     103      POPC     C13      CTL5    -0.350000       12.0110           0
     13520 MEMB     103      POPC     H13A     HL       0.250000       1.00800           0
     13521 MEMB     103      POPC     H13B     HL       0.250000       1.00800           0
     13522 MEMB     103      POPC     H13C     HL       0.250000       1.00800           0
     13523 MEMB     103      POPC     C14      CTL5    -0.350000       12.0110           0
     13524 MEMB     103      POPC     H14A     HL       0.250000       1.00800           0
     13525 MEMB     103      POPC     H14B     HL       0.250000       1.00800           0
     13526 MEMB     103      POPC     H14C     HL       0.250000       1.00800           0
     13527 MEMB     103      POPC     C15      CTL5    -0.350000       12.0110           0
     13528 MEMB     103      POPC     H15A     HL       0.250000       1.00800           0
     13529 MEMB     103      POPC     H15B     HL       0.250000       1.00800           0
     13530 MEMB     103      POPC     H15C     HL       0.250000       1.00800           0
     13531 MEMB     103      POPC     C11      CTL2    -0.800000E-01   12.0110           0
     13532 MEMB     103      POPC     H11A     HAL2     0.900000E-01   1.00800           0
     13533 MEMB     103      POPC     H11B     HAL2     0.900000E-01   1.00800           0
     13534 MEMB     103      POPC     P        PL        1.50000       30.9740           0
     13535 MEMB     103      POPC     O13      O2L     -0.780000       15.9994           0
     13536 MEMB     103      POPC     O14      O2L     -0.780000       15.9994           0
     13537 MEMB     103      POPC     O12      OSLP    -0.570000       15.9994           0
     13538 MEMB     103      POPC     O11      OSLP    -0.570000       15.9994           0
     13539 MEMB     103      POPC     C1       CTL2    -0.800000E-01   12.0110           0
     13540 MEMB     103      POPC     HA       HAL2     0.900000E-01   1.00800           0
     13541 MEMB     103      POPC     HB       HAL2     0.900000E-01   1.00800           0
     13542 MEMB     103      POPC     C2       CTL1     0.170000       12.0110           0
     13543 MEMB     103      POPC     HS       HAL1     0.900000E-01   1.00800           0
     13544 MEMB     103      POPC     O21      OSL     -0.490000       15.9994           0
     13545 MEMB     103      POPC     C21      CL       0.900000       12.0110           0
     13546 MEMB     103      POPC     O22      OBL     -0.630000       15.9994           0
     13547 MEMB     103      POPC     C22      CTL2    -0.220000       12.0110           0
     13548 MEMB     103      POPC     H2R      HAL2     0.900000E-01   1.00800           0
     13549 MEMB     103      POPC     H2S      HAL2     0.900000E-01   1.00800           0
     13550 MEMB     103      POPC     C3       CTL2     0.800000E-01   12.0110           0
     13551 MEMB     103      POPC     HX       HAL2     0.900000E-01   1.00800           0
     13552 MEMB     103      POPC     HY       HAL2     0.900000E-01   1.00800           0
     13553 MEMB     103      POPC     O31      OSL     -0.490000       15.9994           0
     13554 MEMB     103      POPC     C31      CL       0.900000       12.0110           0
     13555 MEMB     103      POPC     O32      OBL     -0.630000       15.9994           0
     13556 MEMB     103      POPC     C32      CTL2    -0.220000       12.0110           0
     13557 MEMB     103      POPC     H2X      HAL2     0.900000E-01   1.00800           0
     13558 MEMB     103      POPC     H2Y      HAL2     0.900000E-01   1.00800           0
     13559 MEMB     103      POPC     C23      CTL2    -0.180000       12.0110           0
     13560 MEMB     103      POPC     H3R      HAL2     0.900000E-01   1.00800           0
     13561 MEMB     103      POPC     H3S      HAL2     0.900000E-01   1.00800           0
     13562 MEMB     103      POPC     C24      CTL2    -0.180000       12.0110           0
     13563 MEMB     103      POPC     H4R      HAL2     0.900000E-01   1.00800           0
     13564 MEMB     103      POPC     H4S      HAL2     0.900000E-01   1.00800           0
     13565 MEMB     103      POPC     C25      CTL2    -0.180000       12.0110           0
     13566 MEMB     103      POPC     H5R      HAL2     0.900000E-01   1.00800           0
     13567 MEMB     103      POPC     H5S      HAL2     0.900000E-01   1.00800           0
     13568 MEMB     103      POPC     C26      CTL2    -0.180000       12.0110           0
     13569 MEMB     103      POPC     H6R      HAL2     0.900000E-01   1.00800           0
     13570 MEMB     103      POPC     H6S      HAL2     0.900000E-01   1.00800           0
     13571 MEMB     103      POPC     C27      CTL2    -0.180000       12.0110           0
     13572 MEMB     103      POPC     H7R      HAL2     0.900000E-01   1.00800           0
     13573 MEMB     103      POPC     H7S      HAL2     0.900000E-01   1.00800           0
     13574 MEMB     103      POPC     C28      CTL2    -0.180000       12.0110           0
     13575 MEMB     103      POPC     H8R      HAL2     0.900000E-01   1.00800           0
     13576 MEMB     103      POPC     H8S      HAL2     0.900000E-01   1.00800           0
     13577 MEMB     103      POPC     C29      CEL1    -0.150000       12.0110           0
     13578 MEMB     103      POPC     H91      HEL1     0.150000       1.00800           0
     13579 MEMB     103      POPC     C210     CEL1    -0.150000       12.0110           0
     13580 MEMB     103      POPC     H101     HEL1     0.150000       1.00800           0
     13581 MEMB     103      POPC     C211     CTL2    -0.180000       12.0110           0
     13582 MEMB     103      POPC     H11R     HAL2     0.900000E-01   1.00800           0
     13583 MEMB     103      POPC     H11S     HAL2     0.900000E-01   1.00800           0
     13584 MEMB     103      POPC     C212     CTL2    -0.180000       12.0110           0
     13585 MEMB     103      POPC     H12R     HAL2     0.900000E-01   1.00800           0
     13586 MEMB     103      POPC     H12S     HAL2     0.900000E-01   1.00800           0
     13587 MEMB     103      POPC     C213     CTL2    -0.180000       12.0110           0
     13588 MEMB     103      POPC     H13R     HAL2     0.900000E-01   1.00800           0
     13589 MEMB     103      POPC     H13S     HAL2     0.900000E-01   1.00800           0
     13590 MEMB     103      POPC     C214     CTL2    -0.180000       12.0110           0
     13591 MEMB     103      POPC     H14R     HAL2     0.900000E-01   1.00800           0
     13592 MEMB     103      POPC     H14S     HAL2     0.900000E-01   1.00800           0
     13593 MEMB     103      POPC     C215     CTL2    -0.180000       12.0110           0
     13594 MEMB     103      POPC     H15R     HAL2     0.900000E-01   1.00800           0
     13595 MEMB     103      POPC     H15S     HAL2     0.900000E-01   1.00800           0
     13596 MEMB     103      POPC     C216     CTL2    -0.180000       12.0110           0
     13597 MEMB     103      POPC     H16R     HAL2     0.900000E-01   1.00800           0
     13598 MEMB     103      POPC     H16S     HAL2     0.900000E-01   1.00800           0
     13599 MEMB     103      POPC     C217     CTL2    -0.180000       12.0110           0
     13600 MEMB     103      POPC     H17R     HAL2     0.900000E-01   1.00800           0
     13601 MEMB     103      POPC     H17S     HAL2     0.900000E-01   1.00800           0
     13602 MEMB     103      POPC     C218     CTL3    -0.270000       12.0110           0
     13603 MEMB     103      POPC     H18R     HAL3     0.900000E-01   1.00800           0
     13604 MEMB     103      POPC     H18S     HAL3     0.900000E-01   1.00800           0
     13605 MEMB     103      POPC     H18T     HAL3     0.900000E-01   1.00800           0
     13606 MEMB     103      POPC     C33      CTL2    -0.180000       12.0110           0
     13607 MEMB     103      POPC     H3X      HAL2     0.900000E-01   1.00800           0
     13608 MEMB     103      POPC     H3Y      HAL2     0.900000E-01   1.00800           0
     13609 MEMB     103      POPC     C34      CTL2    -0.180000       12.0110           0
     13610 MEMB     103      POPC     H4X      HAL2     0.900000E-01   1.00800           0
     13611 MEMB     103      POPC     H4Y      HAL2     0.900000E-01   1.00800           0
     13612 MEMB     103      POPC     C35      CTL2    -0.180000       12.0110           0
     13613 MEMB     103      POPC     H5X      HAL2     0.900000E-01   1.00800           0
     13614 MEMB     103      POPC     H5Y      HAL2     0.900000E-01   1.00800           0
     13615 MEMB     103      POPC     C36      CTL2    -0.180000       12.0110           0
     13616 MEMB     103      POPC     H6X      HAL2     0.900000E-01   1.00800           0
     13617 MEMB     103      POPC     H6Y      HAL2     0.900000E-01   1.00800           0
     13618 MEMB     103      POPC     C37      CTL2    -0.180000       12.0110           0
     13619 MEMB     103      POPC     H7X      HAL2     0.900000E-01   1.00800           0
     13620 MEMB     103      POPC     H7Y      HAL2     0.900000E-01   1.00800           0
     13621 MEMB     103      POPC     C38      CTL2    -0.180000       12.0110           0
     13622 MEMB     103      POPC     H8X      HAL2     0.900000E-01   1.00800           0
     13623 MEMB     103      POPC     H8Y      HAL2     0.900000E-01   1.00800           0
     13624 MEMB     103      POPC     C39      CTL2    -0.180000       12.0110           0
     13625 MEMB     103      POPC     H9X      HAL2     0.900000E-01   1.00800           0
     13626 MEMB     103      POPC     H9Y      HAL2     0.900000E-01   1.00800           0
     13627 MEMB     103      POPC     C310     CTL2    -0.180000       12.0110           0
     13628 MEMB     103      POPC     H10X     HAL2     0.900000E-01   1.00800           0
     13629 MEMB     103      POPC     H10Y     HAL2     0.900000E-01   1.00800           0
     13630 MEMB     103      POPC     C311     CTL2    -0.180000       12.0110           0
     13631 MEMB     103      POPC     H11X     HAL2     0.900000E-01   1.00800           0
     13632 MEMB     103      POPC     H11Y     HAL2     0.900000E-01   1.00800           0
     13633 MEMB     103      POPC     C312     CTL2    -0.180000       12.0110           0
     13634 MEMB     103      POPC     H12X     HAL2     0.900000E-01   1.00800           0
     13635 MEMB     103      POPC     H12Y     HAL2     0.900000E-01   1.00800           0
     13636 MEMB     103      POPC     C313     CTL2    -0.180000       12.0110           0
     13637 MEMB     103      POPC     H13X     HAL2     0.900000E-01   1.00800           0
     13638 MEMB     103      POPC     H13Y     HAL2     0.900000E-01   1.00800           0
     13639 MEMB     103      POPC     C314     CTL2    -0.180000       12.0110           0
     13640 MEMB     103      POPC     H14X     HAL2     0.900000E-01   1.00800           0
     13641 MEMB     103      POPC     H14Y     HAL2     0.900000E-01   1.00800           0
     13642 MEMB     103      POPC     C315     CTL2    -0.180000       12.0110           0
     13643 MEMB     103      POPC     H15X     HAL2     0.900000E-01   1.00800           0
     13644 MEMB     103      POPC     H15Y     HAL2     0.900000E-01   1.00800           0
     13645 MEMB     103      POPC     C316     CTL3    -0.270000       12.0110           0
     13646 MEMB     103      POPC     H16X     HAL3     0.900000E-01   1.00800           0
     13647 MEMB     103      POPC     H16Y     HAL3     0.900000E-01   1.00800           0
     13648 MEMB     103      POPC     H16Z     HAL3     0.900000E-01   1.00800           0
     13649 MEMB     104      POPC     N        NTL     -0.600000       14.0070           0
     13650 MEMB     104      POPC     C12      CTL2    -0.100000       12.0110           0
     13651 MEMB     104      POPC     H12A     HL       0.250000       1.00800           0
     13652 MEMB     104      POPC     H12B     HL       0.250000       1.00800           0
     13653 MEMB     104      POPC     C13      CTL5    -0.350000       12.0110           0
     13654 MEMB     104      POPC     H13A     HL       0.250000       1.00800           0
     13655 MEMB     104      POPC     H13B     HL       0.250000       1.00800           0
     13656 MEMB     104      POPC     H13C     HL       0.250000       1.00800           0
     13657 MEMB     104      POPC     C14      CTL5    -0.350000       12.0110           0
     13658 MEMB     104      POPC     H14A     HL       0.250000       1.00800           0
     13659 MEMB     104      POPC     H14B     HL       0.250000       1.00800           0
     13660 MEMB     104      POPC     H14C     HL       0.250000       1.00800           0
     13661 MEMB     104      POPC     C15      CTL5    -0.350000       12.0110           0
     13662 MEMB     104      POPC     H15A     HL       0.250000       1.00800           0
     13663 MEMB     104      POPC     H15B     HL       0.250000       1.00800           0
     13664 MEMB     104      POPC     H15C     HL       0.250000       1.00800           0
     13665 MEMB     104      POPC     C11      CTL2    -0.800000E-01   12.0110           0
     13666 MEMB     104      POPC     H11A     HAL2     0.900000E-01   1.00800           0
     13667 MEMB     104      POPC     H11B     HAL2     0.900000E-01   1.00800           0
     13668 MEMB     104      POPC     P        PL        1.50000       30.9740           0
     13669 MEMB     104      POPC     O13      O2L     -0.780000       15.9994           0
     13670 MEMB     104      POPC     O14      O2L     -0.780000       15.9994           0
     13671 MEMB     104      POPC     O12      OSLP    -0.570000       15.9994           0
     13672 MEMB     104      POPC     O11      OSLP    -0.570000       15.9994           0
     13673 MEMB     104      POPC     C1       CTL2    -0.800000E-01   12.0110           0
     13674 MEMB     104      POPC     HA       HAL2     0.900000E-01   1.00800           0
     13675 MEMB     104      POPC     HB       HAL2     0.900000E-01   1.00800           0
     13676 MEMB     104      POPC     C2       CTL1     0.170000       12.0110           0
     13677 MEMB     104      POPC     HS       HAL1     0.900000E-01   1.00800           0
     13678 MEMB     104      POPC     O21      OSL     -0.490000       15.9994           0
     13679 MEMB     104      POPC     C21      CL       0.900000       12.0110           0
     13680 MEMB     104      POPC     O22      OBL     -0.630000       15.9994           0
     13681 MEMB     104      POPC     C22      CTL2    -0.220000       12.0110           0
     13682 MEMB     104      POPC     H2R      HAL2     0.900000E-01   1.00800           0
     13683 MEMB     104      POPC     H2S      HAL2     0.900000E-01   1.00800           0
     13684 MEMB     104      POPC     C3       CTL2     0.800000E-01   12.0110           0
     13685 MEMB     104      POPC     HX       HAL2     0.900000E-01   1.00800           0
     13686 MEMB     104      POPC     HY       HAL2     0.900000E-01   1.00800           0
     13687 MEMB     104      POPC     O31      OSL     -0.490000       15.9994           0
     13688 MEMB     104      POPC     C31      CL       0.900000       12.0110           0
     13689 MEMB     104      POPC     O32      OBL     -0.630000       15.9994           0
     13690 MEMB     104      POPC     C32      CTL2    -0.220000       12.0110           0
     13691 MEMB     104      POPC     H2X      HAL2     0.900000E-01   1.00800           0
     13692 MEMB     104      POPC     H2Y      HAL2     0.900000E-01   1.00800           0
     13693 MEMB     104      POPC     C23      CTL2    -0.180000       12.0110           0
     13694 MEMB     104      POPC     H3R      HAL2     0.900000E-01   1.00800           0
     13695 MEMB     104      POPC     H3S      HAL2     0.900000E-01   1.00800           0
     13696 MEMB     104      POPC     C24      CTL2    -0.180000       12.0110           0
     13697 MEMB     104      POPC     H4R      HAL2     0.900000E-01   1.00800           0
     13698 MEMB     104      POPC     H4S      HAL2     0.900000E-01   1.00800           0
     13699 MEMB     104      POPC     C25      CTL2    -0.180000       12.0110           0
     13700 MEMB     104      POPC     H5R      HAL2     0.900000E-01   1.00800           0
     13701 MEMB     104      POPC     H5S      HAL2     0.900000E-01   1.00800           0
     13702 MEMB     104      POPC     C26      CTL2    -0.180000       12.0110           0
     13703 MEMB     104      POPC     H6R      HAL2     0.900000E-01   1.00800           0
     13704 MEMB     104      POPC     H6S      HAL2     0.900000E-01   1.00800           0
     13705 MEMB     104      POPC     C27      CTL2    -0.180000       12.0110           0
     13706 MEMB     104      POPC     H7R      HAL2     0.900000E-01   1.00800           0
     13707 MEMB     104      POPC     H7S      HAL2     0.900000E-01   1.00800           0
     13708 MEMB     104      POPC     C28      CTL2    -0.180000       12.0110           0
     13709 MEMB     104      POPC     H8R      HAL2     0.900000E-01   1.00800           0
     13710 MEMB     104      POPC     H8S      HAL2     0.900000E-01   1.00800           0
     13711 MEMB     104      POPC     C29      CEL1    -0.150000       12.0110           0
     13712 MEMB     104      POPC     H91      HEL1     0.150000       1.00800           0
     13713 MEMB     104      POPC     C210     CEL1    -0.150000       12.0110           0
     13714 MEMB     104      POPC     H101     HEL1     0.150000       1.00800           0
     13715 MEMB     104      POPC     C211     CTL2    -0.180000       12.0110           0
     13716 MEMB     104      POPC     H11R     HAL2     0.900000E-01   1.00800           0
     13717 MEMB     104      POPC     H11S     HAL2     0.900000E-01   1.00800           0
     13718 MEMB     104      POPC     C212     CTL2    -0.180000       12.0110           0
     13719 MEMB     104      POPC     H12R     HAL2     0.900000E-01   1.00800           0
     13720 MEMB     104      POPC     H12S     HAL2     0.900000E-01   1.00800           0
     13721 MEMB     104      POPC     C213     CTL2    -0.180000       12.0110           0
     13722 MEMB     104      POPC     H13R     HAL2     0.900000E-01   1.00800           0
     13723 MEMB     104      POPC     H13S     HAL2     0.900000E-01   1.00800           0
     13724 MEMB     104      POPC     C214     CTL2    -0.180000       12.0110           0
     13725 MEMB     104      POPC     H14R     HAL2     0.900000E-01   1.00800           0
     13726 MEMB     104      POPC     H14S     HAL2     0.900000E-01   1.00800           0
     13727 MEMB     104      POPC     C215     CTL2    -0.180000       12.0110           0
     13728 MEMB     104      POPC     H15R     HAL2     0.900000E-01   1.00800           0
     13729 MEMB     104      POPC     H15S     HAL2     0.900000E-01   1.00800           0
     13730 MEMB     104      POPC     C216     CTL2    -0.180000       12.0110           0
     13731 MEMB     104      POPC     H16R     HAL2     0.900000E-01   1.00800           0
     13732 MEMB     104      POPC     H16S     HAL2     0.900000E-01   1.00800           0
     13733 MEMB     104      POPC     C217     CTL2    -0.180000       12.0110           0
     13734 MEMB     104      POPC     H17R     HAL2     0.900000E-01   1.00800           0
     13735 MEMB     104      POPC     H17S     HAL2     0.900000E-01   1.00800           0
     13736 MEMB     104      POPC     C218     CTL3    -0.270000       12.0110           0
     13737 MEMB     104      POPC     H18R     HAL3     0.900000E-01   1.00800           0
     13738 MEMB     104      POPC     H18S     HAL3     0.900000E-01   1.00800           0
     13739 MEMB     104      POPC     H18T     HAL3     0.900000E-01   1.00800           0
     13740 MEMB     104      POPC     C33      CTL2    -0.180000       12.0110           0
     13741 MEMB     104      POPC     H3X      HAL2     0.900000E-01   1.00800           0
     13742 MEMB     104      POPC     H3Y      HAL2     0.900000E-01   1.00800           0
     13743 MEMB     104      POPC     C34      CTL2    -0.180000       12.0110           0
     13744 MEMB     104      POPC     H4X      HAL2     0.900000E-01   1.00800           0
     13745 MEMB     104      POPC     H4Y      HAL2     0.900000E-01   1.00800           0
     13746 MEMB     104      POPC     C35      CTL2    -0.180000       12.0110           0
     13747 MEMB     104      POPC     H5X      HAL2     0.900000E-01   1.00800           0
     13748 MEMB     104      POPC     H5Y      HAL2     0.900000E-01   1.00800           0
     13749 MEMB     104      POPC     C36      CTL2    -0.180000       12.0110           0
     13750 MEMB     104      POPC     H6X      HAL2     0.900000E-01   1.00800           0
     13751 MEMB     104      POPC     H6Y      HAL2     0.900000E-01   1.00800           0
     13752 MEMB     104      POPC     C37      CTL2    -0.180000       12.0110           0
     13753 MEMB     104      POPC     H7X      HAL2     0.900000E-01   1.00800           0
     13754 MEMB     104      POPC     H7Y      HAL2     0.900000E-01   1.00800           0
     13755 MEMB     104      POPC     C38      CTL2    -0.180000       12.0110           0
     13756 MEMB     104      POPC     H8X      HAL2     0.900000E-01   1.00800           0
     13757 MEMB     104      POPC     H8Y      HAL2     0.900000E-01   1.00800           0
     13758 MEMB     104      POPC     C39      CTL2    -0.180000       12.0110           0
     13759 MEMB     104      POPC     H9X      HAL2     0.900000E-01   1.00800           0
     13760 MEMB     104      POPC     H9Y      HAL2     0.900000E-01   1.00800           0
     13761 MEMB     104      POPC     C310     CTL2    -0.180000       12.0110           0
     13762 MEMB     104      POPC     H10X     HAL2     0.900000E-01   1.00800           0
     13763 MEMB     104      POPC     H10Y     HAL2     0.900000E-01   1.00800           0
     13764 MEMB     104      POPC     C311     CTL2    -0.180000       12.0110           0
     13765 MEMB     104      POPC     H11X     HAL2     0.900000E-01   1.00800           0
     13766 MEMB     104      POPC     H11Y     HAL2     0.900000E-01   1.00800           0
     13767 MEMB     104      POPC     C312     CTL2    -0.180000       12.0110           0
     13768 MEMB     104      POPC     H12X     HAL2     0.900000E-01   1.00800           0
     13769 MEMB     104      POPC     H12Y     HAL2     0.900000E-01   1.00800           0
     13770 MEMB     104      POPC     C313     CTL2    -0.180000       12.0110           0
     13771 MEMB     104      POPC     H13X     HAL2     0.900000E-01   1.00800           0
     13772 MEMB     104      POPC     H13Y     HAL2     0.900000E-01   1.00800           0
     13773 MEMB     104      POPC     C314     CTL2    -0.180000       12.0110           0
     13774 MEMB     104      POPC     H14X     HAL2     0.900000E-01   1.00800           0
     13775 MEMB     104      POPC     H14Y     HAL2     0.900000E-01   1.00800           0
     13776 MEMB     104      POPC     C315     CTL2    -0.180000       12.0110           0
     13777 MEMB     104      POPC     H15X     HAL2     0.900000E-01   1.00800           0
     13778 MEMB     104      POPC     H15Y     HAL2     0.900000E-01   1.00800           0
     13779 MEMB     104      POPC     C316     CTL3    -0.270000       12.0110           0
     13780 MEMB     104      POPC     H16X     HAL3     0.900000E-01   1.00800           0
     13781 MEMB     104      POPC     H16Y     HAL3     0.900000E-01   1.00800           0
     13782 MEMB     104      POPC     H16Z     HAL3     0.900000E-01   1.00800           0
     13783 MEMB     105      POPC     N        NTL     -0.600000       14.0070           0
     13784 MEMB     105      POPC     C12      CTL2    -0.100000       12.0110           0
     13785 MEMB     105      POPC     H12A     HL       0.250000       1.00800           0
     13786 MEMB     105      POPC     H12B     HL       0.250000       1.00800           0
     13787 MEMB     105      POPC     C13      CTL5    -0.350000       12.0110           0
     13788 MEMB     105      POPC     H13A     HL       0.250000       1.00800           0
     13789 MEMB     105      POPC     H13B     HL       0.250000       1.00800           0
     13790 MEMB     105      POPC     H13C     HL       0.250000       1.00800           0
     13791 MEMB     105      POPC     C14      CTL5    -0.350000       12.0110           0
     13792 MEMB     105      POPC     H14A     HL       0.250000       1.00800           0
     13793 MEMB     105      POPC     H14B     HL       0.250000       1.00800           0
     13794 MEMB     105      POPC     H14C     HL       0.250000       1.00800           0
     13795 MEMB     105      POPC     C15      CTL5    -0.350000       12.0110           0
     13796 MEMB     105      POPC     H15A     HL       0.250000       1.00800           0
     13797 MEMB     105      POPC     H15B     HL       0.250000       1.00800           0
     13798 MEMB     105      POPC     H15C     HL       0.250000       1.00800           0
     13799 MEMB     105      POPC     C11      CTL2    -0.800000E-01   12.0110           0
     13800 MEMB     105      POPC     H11A     HAL2     0.900000E-01   1.00800           0
     13801 MEMB     105      POPC     H11B     HAL2     0.900000E-01   1.00800           0
     13802 MEMB     105      POPC     P        PL        1.50000       30.9740           0
     13803 MEMB     105      POPC     O13      O2L     -0.780000       15.9994           0
     13804 MEMB     105      POPC     O14      O2L     -0.780000       15.9994           0
     13805 MEMB     105      POPC     O12      OSLP    -0.570000       15.9994           0
     13806 MEMB     105      POPC     O11      OSLP    -0.570000       15.9994           0
     13807 MEMB     105      POPC     C1       CTL2    -0.800000E-01   12.0110           0
     13808 MEMB     105      POPC     HA       HAL2     0.900000E-01   1.00800           0
     13809 MEMB     105      POPC     HB       HAL2     0.900000E-01   1.00800           0
     13810 MEMB     105      POPC     C2       CTL1     0.170000       12.0110           0
     13811 MEMB     105      POPC     HS       HAL1     0.900000E-01   1.00800           0
     13812 MEMB     105      POPC     O21      OSL     -0.490000       15.9994           0
     13813 MEMB     105      POPC     C21      CL       0.900000       12.0110           0
     13814 MEMB     105      POPC     O22      OBL     -0.630000       15.9994           0
     13815 MEMB     105      POPC     C22      CTL2    -0.220000       12.0110           0
     13816 MEMB     105      POPC     H2R      HAL2     0.900000E-01   1.00800           0
     13817 MEMB     105      POPC     H2S      HAL2     0.900000E-01   1.00800           0
     13818 MEMB     105      POPC     C3       CTL2     0.800000E-01   12.0110           0
     13819 MEMB     105      POPC     HX       HAL2     0.900000E-01   1.00800           0
     13820 MEMB     105      POPC     HY       HAL2     0.900000E-01   1.00800           0
     13821 MEMB     105      POPC     O31      OSL     -0.490000       15.9994           0
     13822 MEMB     105      POPC     C31      CL       0.900000       12.0110           0
     13823 MEMB     105      POPC     O32      OBL     -0.630000       15.9994           0
     13824 MEMB     105      POPC     C32      CTL2    -0.220000       12.0110           0
     13825 MEMB     105      POPC     H2X      HAL2     0.900000E-01   1.00800           0
     13826 MEMB     105      POPC     H2Y      HAL2     0.900000E-01   1.00800           0
     13827 MEMB     105      POPC     C23      CTL2    -0.180000       12.0110           0
     13828 MEMB     105      POPC     H3R      HAL2     0.900000E-01   1.00800           0
     13829 MEMB     105      POPC     H3S      HAL2     0.900000E-01   1.00800           0
     13830 MEMB     105      POPC     C24      CTL2    -0.180000       12.0110           0
     13831 MEMB     105      POPC     H4R      HAL2     0.900000E-01   1.00800           0
     13832 MEMB     105      POPC     H4S      HAL2     0.900000E-01   1.00800           0
     13833 MEMB     105      POPC     C25      CTL2    -0.180000       12.0110           0
     13834 MEMB     105      POPC     H5R      HAL2     0.900000E-01   1.00800           0
     13835 MEMB     105      POPC     H5S      HAL2     0.900000E-01   1.00800           0
     13836 MEMB     105      POPC     C26      CTL2    -0.180000       12.0110           0
     13837 MEMB     105      POPC     H6R      HAL2     0.900000E-01   1.00800           0
     13838 MEMB     105      POPC     H6S      HAL2     0.900000E-01   1.00800           0
     13839 MEMB     105      POPC     C27      CTL2    -0.180000       12.0110           0
     13840 MEMB     105      POPC     H7R      HAL2     0.900000E-01   1.00800           0
     13841 MEMB     105      POPC     H7S      HAL2     0.900000E-01   1.00800           0
     13842 MEMB     105      POPC     C28      CTL2    -0.180000       12.0110           0
     13843 MEMB     105      POPC     H8R      HAL2     0.900000E-01   1.00800           0
     13844 MEMB     105      POPC     H8S      HAL2     0.900000E-01   1.00800           0
     13845 MEMB     105      POPC     C29      CEL1    -0.150000       12.0110           0
     13846 MEMB     105      POPC     H91      HEL1     0.150000       1.00800           0
     13847 MEMB     105      POPC     C210     CEL1    -0.150000       12.0110           0
     13848 MEMB     105      POPC     H101     HEL1     0.150000       1.00800           0
     13849 MEMB     105      POPC     C211     CTL2    -0.180000       12.0110           0
     13850 MEMB     105      POPC     H11R     HAL2     0.900000E-01   1.00800           0
     13851 MEMB     105      POPC     H11S     HAL2     0.900000E-01   1.00800           0
     13852 MEMB     105      POPC     C212     CTL2    -0.180000       12.0110           0
     13853 MEMB     105      POPC     H12R     HAL2     0.900000E-01   1.00800           0
     13854 MEMB     105      POPC     H12S     HAL2     0.900000E-01   1.00800           0
     13855 MEMB     105      POPC     C213     CTL2    -0.180000       12.0110           0
     13856 MEMB     105      POPC     H13R     HAL2     0.900000E-01   1.00800           0
     13857 MEMB     105      POPC     H13S     HAL2     0.900000E-01   1.00800           0
     13858 MEMB     105      POPC     C214     CTL2    -0.180000       12.0110           0
     13859 MEMB     105      POPC     H14R     HAL2     0.900000E-01   1.00800           0
     13860 MEMB     105      POPC     H14S     HAL2     0.900000E-01   1.00800           0
     13861 MEMB     105      POPC     C215     CTL2    -0.180000       12.0110           0
     13862 MEMB     105      POPC     H15R     HAL2     0.900000E-01   1.00800           0
     13863 MEMB     105      POPC     H15S     HAL2     0.900000E-01   1.00800           0
     13864 MEMB     105      POPC     C216     CTL2    -0.180000       12.0110           0
     13865 MEMB     105      POPC     H16R     HAL2     0.900000E-01   1.00800           0
     13866 MEMB     105      POPC     H16S     HAL2     0.900000E-01   1.00800           0
     13867 MEMB     105      POPC     C217     CTL2    -0.180000       12.0110           0
     13868 MEMB     105      POPC     H17R     HAL2     0.900000E-01   1.00800           0
     13869 MEMB     105      POPC     H17S     HAL2     0.900000E-01   1.00800           0
     13870 MEMB     105      POPC     C218     CTL3    -0.270000       12.0110           0
     13871 MEMB     105      POPC     H18R     HAL3     0.900000E-01   1.00800           0
     13872 MEMB     105      POPC     H18S     HAL3     0.900000E-01   1.00800           0
     13873 MEMB     105      POPC     H18T     HAL3     0.900000E-01   1.00800           0
     13874 MEMB     105      POPC     C33      CTL2    -0.180000       12.0110           0
     13875 MEMB     105      POPC     H3X      HAL2     0.900000E-01   1.00800           0
     13876 MEMB     105      POPC     H3Y      HAL2     0.900000E-01   1.00800           0
     13877 MEMB     105      POPC     C34      CTL2    -0.180000       12.0110           0
     13878 MEMB     105      POPC     H4X      HAL2     0.900000E-01   1.00800           0
     13879 MEMB     105      POPC     H4Y      HAL2     0.900000E-01   1.00800           0
     13880 MEMB     105      POPC     C35      CTL2    -0.180000       12.0110           0
     13881 MEMB     105      POPC     H5X      HAL2     0.900000E-01   1.00800           0
     13882 MEMB     105      POPC     H5Y      HAL2     0.900000E-01   1.00800           0
     13883 MEMB     105      POPC     C36      CTL2    -0.180000       12.0110           0
     13884 MEMB     105      POPC     H6X      HAL2     0.900000E-01   1.00800           0
     13885 MEMB     105      POPC     H6Y      HAL2     0.900000E-01   1.00800           0
     13886 MEMB     105      POPC     C37      CTL2    -0.180000       12.0110           0
     13887 MEMB     105      POPC     H7X      HAL2     0.900000E-01   1.00800           0
     13888 MEMB     105      POPC     H7Y      HAL2     0.900000E-01   1.00800           0
     13889 MEMB     105      POPC     C38      CTL2    -0.180000       12.0110           0
     13890 MEMB     105      POPC     H8X      HAL2     0.900000E-01   1.00800           0
     13891 MEMB     105      POPC     H8Y      HAL2     0.900000E-01   1.00800           0
     13892 MEMB     105      POPC     C39      CTL2    -0.180000       12.0110           0
     13893 MEMB     105      POPC     H9X      HAL2     0.900000E-01   1.00800           0
     13894 MEMB     105      POPC     H9Y      HAL2     0.900000E-01   1.00800           0
     13895 MEMB     105      POPC     C310     CTL2    -0.180000       12.0110           0
     13896 MEMB     105      POPC     H10X     HAL2     0.900000E-01   1.00800           0
     13897 MEMB     105      POPC     H10Y     HAL2     0.900000E-01   1.00800           0
     13898 MEMB     105      POPC     C311     CTL2    -0.180000       12.0110           0
     13899 MEMB     105      POPC     H11X     HAL2     0.900000E-01   1.00800           0
     13900 MEMB     105      POPC     H11Y     HAL2     0.900000E-01   1.00800           0
     13901 MEMB     105      POPC     C312     CTL2    -0.180000       12.0110           0
     13902 MEMB     105      POPC     H12X     HAL2     0.900000E-01   1.00800           0
     13903 MEMB     105      POPC     H12Y     HAL2     0.900000E-01   1.00800           0
     13904 MEMB     105      POPC     C313     CTL2    -0.180000       12.0110           0
     13905 MEMB     105      POPC     H13X     HAL2     0.900000E-01   1.00800           0
     13906 MEMB     105      POPC     H13Y     HAL2     0.900000E-01   1.00800           0
     13907 MEMB     105      POPC     C314     CTL2    -0.180000       12.0110           0
     13908 MEMB     105      POPC     H14X     HAL2     0.900000E-01   1.00800           0
     13909 MEMB     105      POPC     H14Y     HAL2     0.900000E-01   1.00800           0
     13910 MEMB     105      POPC     C315     CTL2    -0.180000       12.0110           0
     13911 MEMB     105      POPC     H15X     HAL2     0.900000E-01   1.00800           0
     13912 MEMB     105      POPC     H15Y     HAL2     0.900000E-01   1.00800           0
     13913 MEMB     105      POPC     C316     CTL3    -0.270000       12.0110           0
     13914 MEMB     105      POPC     H16X     HAL3     0.900000E-01   1.00800           0
     13915 MEMB     105      POPC     H16Y     HAL3     0.900000E-01   1.00800           0
     13916 MEMB     105      POPC     H16Z     HAL3     0.900000E-01   1.00800           0
     13917 MEMB     106      POPC     N        NTL     -0.600000       14.0070           0
     13918 MEMB     106      POPC     C12      CTL2    -0.100000       12.0110           0
     13919 MEMB     106      POPC     H12A     HL       0.250000       1.00800           0
     13920 MEMB     106      POPC     H12B     HL       0.250000       1.00800           0
     13921 MEMB     106      POPC     C13      CTL5    -0.350000       12.0110           0
     13922 MEMB     106      POPC     H13A     HL       0.250000       1.00800           0
     13923 MEMB     106      POPC     H13B     HL       0.250000       1.00800           0
     13924 MEMB     106      POPC     H13C     HL       0.250000       1.00800           0
     13925 MEMB     106      POPC     C14      CTL5    -0.350000       12.0110           0
     13926 MEMB     106      POPC     H14A     HL       0.250000       1.00800           0
     13927 MEMB     106      POPC     H14B     HL       0.250000       1.00800           0
     13928 MEMB     106      POPC     H14C     HL       0.250000       1.00800           0
     13929 MEMB     106      POPC     C15      CTL5    -0.350000       12.0110           0
     13930 MEMB     106      POPC     H15A     HL       0.250000       1.00800           0
     13931 MEMB     106      POPC     H15B     HL       0.250000       1.00800           0
     13932 MEMB     106      POPC     H15C     HL       0.250000       1.00800           0
     13933 MEMB     106      POPC     C11      CTL2    -0.800000E-01   12.0110           0
     13934 MEMB     106      POPC     H11A     HAL2     0.900000E-01   1.00800           0
     13935 MEMB     106      POPC     H11B     HAL2     0.900000E-01   1.00800           0
     13936 MEMB     106      POPC     P        PL        1.50000       30.9740           0
     13937 MEMB     106      POPC     O13      O2L     -0.780000       15.9994           0
     13938 MEMB     106      POPC     O14      O2L     -0.780000       15.9994           0
     13939 MEMB     106      POPC     O12      OSLP    -0.570000       15.9994           0
     13940 MEMB     106      POPC     O11      OSLP    -0.570000       15.9994           0
     13941 MEMB     106      POPC     C1       CTL2    -0.800000E-01   12.0110           0
     13942 MEMB     106      POPC     HA       HAL2     0.900000E-01   1.00800           0
     13943 MEMB     106      POPC     HB       HAL2     0.900000E-01   1.00800           0
     13944 MEMB     106      POPC     C2       CTL1     0.170000       12.0110           0
     13945 MEMB     106      POPC     HS       HAL1     0.900000E-01   1.00800           0
     13946 MEMB     106      POPC     O21      OSL     -0.490000       15.9994           0
     13947 MEMB     106      POPC     C21      CL       0.900000       12.0110           0
     13948 MEMB     106      POPC     O22      OBL     -0.630000       15.9994           0
     13949 MEMB     106      POPC     C22      CTL2    -0.220000       12.0110           0
     13950 MEMB     106      POPC     H2R      HAL2     0.900000E-01   1.00800           0
     13951 MEMB     106      POPC     H2S      HAL2     0.900000E-01   1.00800           0
     13952 MEMB     106      POPC     C3       CTL2     0.800000E-01   12.0110           0
     13953 MEMB     106      POPC     HX       HAL2     0.900000E-01   1.00800           0
     13954 MEMB     106      POPC     HY       HAL2     0.900000E-01   1.00800           0
     13955 MEMB     106      POPC     O31      OSL     -0.490000       15.9994           0
     13956 MEMB     106      POPC     C31      CL       0.900000       12.0110           0
     13957 MEMB     106      POPC     O32      OBL     -0.630000       15.9994           0
     13958 MEMB     106      POPC     C32      CTL2    -0.220000       12.0110           0
     13959 MEMB     106      POPC     H2X      HAL2     0.900000E-01   1.00800           0
     13960 MEMB     106      POPC     H2Y      HAL2     0.900000E-01   1.00800           0
     13961 MEMB     106      POPC     C23      CTL2    -0.180000       12.0110           0
     13962 MEMB     106      POPC     H3R      HAL2     0.900000E-01   1.00800           0
     13963 MEMB     106      POPC     H3S      HAL2     0.900000E-01   1.00800           0
     13964 MEMB     106      POPC     C24      CTL2    -0.180000       12.0110           0
     13965 MEMB     106      POPC     H4R      HAL2     0.900000E-01   1.00800           0
     13966 MEMB     106      POPC     H4S      HAL2     0.900000E-01   1.00800           0
     13967 MEMB     106      POPC     C25      CTL2    -0.180000       12.0110           0
     13968 MEMB     106      POPC     H5R      HAL2     0.900000E-01   1.00800           0
     13969 MEMB     106      POPC     H5S      HAL2     0.900000E-01   1.00800           0
     13970 MEMB     106      POPC     C26      CTL2    -0.180000       12.0110           0
     13971 MEMB     106      POPC     H6R      HAL2     0.900000E-01   1.00800           0
     13972 MEMB     106      POPC     H6S      HAL2     0.900000E-01   1.00800           0
     13973 MEMB     106      POPC     C27      CTL2    -0.180000       12.0110           0
     13974 MEMB     106      POPC     H7R      HAL2     0.900000E-01   1.00800           0
     13975 MEMB     106      POPC     H7S      HAL2     0.900000E-01   1.00800           0
     13976 MEMB     106      POPC     C28      CTL2    -0.180000       12.0110           0
     13977 MEMB     106      POPC     H8R      HAL2     0.900000E-01   1.00800           0
     13978 MEMB     106      POPC     H8S      HAL2     0.900000E-01   1.00800           0
     13979 MEMB     106      POPC     C29      CEL1    -0.150000       12.0110           0
     13980 MEMB     106      POPC     H91      HEL1     0.150000       1.00800           0
     13981 MEMB     106      POPC     C210     CEL1    -0.150000       12.0110           0
     13982 MEMB     106      POPC     H101     HEL1     0.150000       1.00800           0
     13983 MEMB     106      POPC     C211     CTL2    -0.180000       12.0110           0
     13984 MEMB     106      POPC     H11R     HAL2     0.900000E-01   1.00800           0
     13985 MEMB     106      POPC     H11S     HAL2     0.900000E-01   1.00800           0
     13986 MEMB     106      POPC     C212     CTL2    -0.180000       12.0110           0
     13987 MEMB     106      POPC     H12R     HAL2     0.900000E-01   1.00800           0
     13988 MEMB     106      POPC     H12S     HAL2     0.900000E-01   1.00800           0
     13989 MEMB     106      POPC     C213     CTL2    -0.180000       12.0110           0
     13990 MEMB     106      POPC     H13R     HAL2     0.900000E-01   1.00800           0
     13991 MEMB     106      POPC     H13S     HAL2     0.900000E-01   1.00800           0
     13992 MEMB     106      POPC     C214     CTL2    -0.180000       12.0110           0
     13993 MEMB     106      POPC     H14R     HAL2     0.900000E-01   1.00800           0
     13994 MEMB     106      POPC     H14S     HAL2     0.900000E-01   1.00800           0
     13995 MEMB     106      POPC     C215     CTL2    -0.180000       12.0110           0
     13996 MEMB     106      POPC     H15R     HAL2     0.900000E-01   1.00800           0
     13997 MEMB     106      POPC     H15S     HAL2     0.900000E-01   1.00800           0
     13998 MEMB     106      POPC     C216     CTL2    -0.180000       12.0110           0
     13999 MEMB     106      POPC     H16R     HAL2     0.900000E-01   1.00800           0
     14000 MEMB     106      POPC     H16S     HAL2     0.900000E-01   1.00800           0
     14001 MEMB     106      POPC     C217     CTL2    -0.180000       12.0110           0
     14002 MEMB     106      POPC     H17R     HAL2     0.900000E-01   1.00800           0
     14003 MEMB     106      POPC     H17S     HAL2     0.900000E-01   1.00800           0
     14004 MEMB     106      POPC     C218     CTL3    -0.270000       12.0110           0
     14005 MEMB     106      POPC     H18R     HAL3     0.900000E-01   1.00800           0
     14006 MEMB     106      POPC     H18S     HAL3     0.900000E-01   1.00800           0
     14007 MEMB     106      POPC     H18T     HAL3     0.900000E-01   1.00800           0
     14008 MEMB     106      POPC     C33      CTL2    -0.180000       12.0110           0
     14009 MEMB     106      POPC     H3X      HAL2     0.900000E-01   1.00800           0
     14010 MEMB     106      POPC     H3Y      HAL2     0.900000E-01   1.00800           0
     14011 MEMB     106      POPC     C34      CTL2    -0.180000       12.0110           0
     14012 MEMB     106      POPC     H4X      HAL2     0.900000E-01   1.00800           0
     14013 MEMB     106      POPC     H4Y      HAL2     0.900000E-01   1.00800           0
     14014 MEMB     106      POPC     C35      CTL2    -0.180000       12.0110           0
     14015 MEMB     106      POPC     H5X      HAL2     0.900000E-01   1.00800           0
     14016 MEMB     106      POPC     H5Y      HAL2     0.900000E-01   1.00800           0
     14017 MEMB     106      POPC     C36      CTL2    -0.180000       12.0110           0
     14018 MEMB     106      POPC     H6X      HAL2     0.900000E-01   1.00800           0
     14019 MEMB     106      POPC     H6Y      HAL2     0.900000E-01   1.00800           0
     14020 MEMB     106      POPC     C37      CTL2    -0.180000       12.0110           0
     14021 MEMB     106      POPC     H7X      HAL2     0.900000E-01   1.00800           0
     14022 MEMB     106      POPC     H7Y      HAL2     0.900000E-01   1.00800           0
     14023 MEMB     106      POPC     C38      CTL2    -0.180000       12.0110           0
     14024 MEMB     106      POPC     H8X      HAL2     0.900000E-01   1.00800           0
     14025 MEMB     106      POPC     H8Y      HAL2     0.900000E-01   1.00800           0
     14026 MEMB     106      POPC     C39      CTL2    -0.180000       12.0110           0
     14027 MEMB     106      POPC     H9X      HAL2     0.900000E-01   1.00800           0
     14028 MEMB     106      POPC     H9Y      HAL2     0.900000E-01   1.00800           0
     14029 MEMB     106      POPC     C310     CTL2    -0.180000       12.0110           0
     14030 MEMB     106      POPC     H10X     HAL2     0.900000E-01   1.00800           0
     14031 MEMB     106      POPC     H10Y     HAL2     0.900000E-01   1.00800           0
     14032 MEMB     106      POPC     C311     CTL2    -0.180000       12.0110           0
     14033 MEMB     106      POPC     H11X     HAL2     0.900000E-01   1.00800           0
     14034 MEMB     106      POPC     H11Y     HAL2     0.900000E-01   1.00800           0
     14035 MEMB     106      POPC     C312     CTL2    -0.180000       12.0110           0
     14036 MEMB     106      POPC     H12X     HAL2     0.900000E-01   1.00800           0
     14037 MEMB     106      POPC     H12Y     HAL2     0.900000E-01   1.00800           0
     14038 MEMB     106      POPC     C313     CTL2    -0.180000       12.0110           0
     14039 MEMB     106      POPC     H13X     HAL2     0.900000E-01   1.00800           0
     14040 MEMB     106      POPC     H13Y     HAL2     0.900000E-01   1.00800           0
     14041 MEMB     106      POPC     C314     CTL2    -0.180000       12.0110           0
     14042 MEMB     106      POPC     H14X     HAL2     0.900000E-01   1.00800           0
     14043 MEMB     106      POPC     H14Y     HAL2     0.900000E-01   1.00800           0
     14044 MEMB     106      POPC     C315     CTL2    -0.180000       12.0110           0
     14045 MEMB     106      POPC     H15X     HAL2     0.900000E-01   1.00800           0
     14046 MEMB     106      POPC     H15Y     HAL2     0.900000E-01   1.00800           0
     14047 MEMB     106      POPC     C316     CTL3    -0.270000       12.0110           0
     14048 MEMB     106      POPC     H16X     HAL3     0.900000E-01   1.00800           0
     14049 MEMB     106      POPC     H16Y     HAL3     0.900000E-01   1.00800           0
     14050 MEMB     106      POPC     H16Z     HAL3     0.900000E-01   1.00800           0
     14051 MEMB     107      POPC     N        NTL     -0.600000       14.0070           0
     14052 MEMB     107      POPC     C12      CTL2    -0.100000       12.0110           0
     14053 MEMB     107      POPC     H12A     HL       0.250000       1.00800           0
     14054 MEMB     107      POPC     H12B     HL       0.250000       1.00800           0
     14055 MEMB     107      POPC     C13      CTL5    -0.350000       12.0110           0
     14056 MEMB     107      POPC     H13A     HL       0.250000       1.00800           0
     14057 MEMB     107      POPC     H13B     HL       0.250000       1.00800           0
     14058 MEMB     107      POPC     H13C     HL       0.250000       1.00800           0
     14059 MEMB     107      POPC     C14      CTL5    -0.350000       12.0110           0
     14060 MEMB     107      POPC     H14A     HL       0.250000       1.00800           0
     14061 MEMB     107      POPC     H14B     HL       0.250000       1.00800           0
     14062 MEMB     107      POPC     H14C     HL       0.250000       1.00800           0
     14063 MEMB     107      POPC     C15      CTL5    -0.350000       12.0110           0
     14064 MEMB     107      POPC     H15A     HL       0.250000       1.00800           0
     14065 MEMB     107      POPC     H15B     HL       0.250000       1.00800           0
     14066 MEMB     107      POPC     H15C     HL       0.250000       1.00800           0
     14067 MEMB     107      POPC     C11      CTL2    -0.800000E-01   12.0110           0
     14068 MEMB     107      POPC     H11A     HAL2     0.900000E-01   1.00800           0
     14069 MEMB     107      POPC     H11B     HAL2     0.900000E-01   1.00800           0
     14070 MEMB     107      POPC     P        PL        1.50000       30.9740           0
     14071 MEMB     107      POPC     O13      O2L     -0.780000       15.9994           0
     14072 MEMB     107      POPC     O14      O2L     -0.780000       15.9994           0
     14073 MEMB     107      POPC     O12      OSLP    -0.570000       15.9994           0
     14074 MEMB     107      POPC     O11      OSLP    -0.570000       15.9994           0
     14075 MEMB     107      POPC     C1       CTL2    -0.800000E-01   12.0110           0
     14076 MEMB     107      POPC     HA       HAL2     0.900000E-01   1.00800           0
     14077 MEMB     107      POPC     HB       HAL2     0.900000E-01   1.00800           0
     14078 MEMB     107      POPC     C2       CTL1     0.170000       12.0110           0
     14079 MEMB     107      POPC     HS       HAL1     0.900000E-01   1.00800           0
     14080 MEMB     107      POPC     O21      OSL     -0.490000       15.9994           0
     14081 MEMB     107      POPC     C21      CL       0.900000       12.0110           0
     14082 MEMB     107      POPC     O22      OBL     -0.630000       15.9994           0
     14083 MEMB     107      POPC     C22      CTL2    -0.220000       12.0110           0
     14084 MEMB     107      POPC     H2R      HAL2     0.900000E-01   1.00800           0
     14085 MEMB     107      POPC     H2S      HAL2     0.900000E-01   1.00800           0
     14086 MEMB     107      POPC     C3       CTL2     0.800000E-01   12.0110           0
     14087 MEMB     107      POPC     HX       HAL2     0.900000E-01   1.00800           0
     14088 MEMB     107      POPC     HY       HAL2     0.900000E-01   1.00800           0
     14089 MEMB     107      POPC     O31      OSL     -0.490000       15.9994           0
     14090 MEMB     107      POPC     C31      CL       0.900000       12.0110           0
     14091 MEMB     107      POPC     O32      OBL     -0.630000       15.9994           0
     14092 MEMB     107      POPC     C32      CTL2    -0.220000       12.0110           0
     14093 MEMB     107      POPC     H2X      HAL2     0.900000E-01   1.00800           0
     14094 MEMB     107      POPC     H2Y      HAL2     0.900000E-01   1.00800           0
     14095 MEMB     107      POPC     C23      CTL2    -0.180000       12.0110           0
     14096 MEMB     107      POPC     H3R      HAL2     0.900000E-01   1.00800           0
     14097 MEMB     107      POPC     H3S      HAL2     0.900000E-01   1.00800           0
     14098 MEMB     107      POPC     C24      CTL2    -0.180000       12.0110           0
     14099 MEMB     107      POPC     H4R      HAL2     0.900000E-01   1.00800           0
     14100 MEMB     107      POPC     H4S      HAL2     0.900000E-01   1.00800           0
     14101 MEMB     107      POPC     C25      CTL2    -0.180000       12.0110           0
     14102 MEMB     107      POPC     H5R      HAL2     0.900000E-01   1.00800           0
     14103 MEMB     107      POPC     H5S      HAL2     0.900000E-01   1.00800           0
     14104 MEMB     107      POPC     C26      CTL2    -0.180000       12.0110           0
     14105 MEMB     107      POPC     H6R      HAL2     0.900000E-01   1.00800           0
     14106 MEMB     107      POPC     H6S      HAL2     0.900000E-01   1.00800           0
     14107 MEMB     107      POPC     C27      CTL2    -0.180000       12.0110           0
     14108 MEMB     107      POPC     H7R      HAL2     0.900000E-01   1.00800           0
     14109 MEMB     107      POPC     H7S      HAL2     0.900000E-01   1.00800           0
     14110 MEMB     107      POPC     C28      CTL2    -0.180000       12.0110           0
     14111 MEMB     107      POPC     H8R      HAL2     0.900000E-01   1.00800           0
     14112 MEMB     107      POPC     H8S      HAL2     0.900000E-01   1.00800           0
     14113 MEMB     107      POPC     C29      CEL1    -0.150000       12.0110           0
     14114 MEMB     107      POPC     H91      HEL1     0.150000       1.00800           0
     14115 MEMB     107      POPC     C210     CEL1    -0.150000       12.0110           0
     14116 MEMB     107      POPC     H101     HEL1     0.150000       1.00800           0
     14117 MEMB     107      POPC     C211     CTL2    -0.180000       12.0110           0
     14118 MEMB     107      POPC     H11R     HAL2     0.900000E-01   1.00800           0
     14119 MEMB     107      POPC     H11S     HAL2     0.900000E-01   1.00800           0
     14120 MEMB     107      POPC     C212     CTL2    -0.180000       12.0110           0
     14121 MEMB     107      POPC     H12R     HAL2     0.900000E-01   1.00800           0
     14122 MEMB     107      POPC     H12S     HAL2     0.900000E-01   1.00800           0
     14123 MEMB     107      POPC     C213     CTL2    -0.180000       12.0110           0
     14124 MEMB     107      POPC     H13R     HAL2     0.900000E-01   1.00800           0
     14125 MEMB     107      POPC     H13S     HAL2     0.900000E-01   1.00800           0
     14126 MEMB     107      POPC     C214     CTL2    -0.180000       12.0110           0
     14127 MEMB     107      POPC     H14R     HAL2     0.900000E-01   1.00800           0
     14128 MEMB     107      POPC     H14S     HAL2     0.900000E-01   1.00800           0
     14129 MEMB     107      POPC     C215     CTL2    -0.180000       12.0110           0
     14130 MEMB     107      POPC     H15R     HAL2     0.900000E-01   1.00800           0
     14131 MEMB     107      POPC     H15S     HAL2     0.900000E-01   1.00800           0
     14132 MEMB     107      POPC     C216     CTL2    -0.180000       12.0110           0
     14133 MEMB     107      POPC     H16R     HAL2     0.900000E-01   1.00800           0
     14134 MEMB     107      POPC     H16S     HAL2     0.900000E-01   1.00800           0
     14135 MEMB     107      POPC     C217     CTL2    -0.180000       12.0110           0
     14136 MEMB     107      POPC     H17R     HAL2     0.900000E-01   1.00800           0
     14137 MEMB     107      POPC     H17S     HAL2     0.900000E-01   1.00800           0
     14138 MEMB     107      POPC     C218     CTL3    -0.270000       12.0110           0
     14139 MEMB     107      POPC     H18R     HAL3     0.900000E-01   1.00800           0
     14140 MEMB     107      POPC     H18S     HAL3     0.900000E-01   1.00800           0
     14141 MEMB     107      POPC     H18T     HAL3     0.900000E-01   1.00800           0
     14142 MEMB     107      POPC     C33      CTL2    -0.180000       12.0110           0
     14143 MEMB     107      POPC     H3X      HAL2     0.900000E-01   1.00800           0
     14144 MEMB     107      POPC     H3Y      HAL2     0.900000E-01   1.00800           0
     14145 MEMB     107      POPC     C34      CTL2    -0.180000       12.0110           0
     14146 MEMB     107      POPC     H4X      HAL2     0.900000E-01   1.00800           0
     14147 MEMB     107      POPC     H4Y      HAL2     0.900000E-01   1.00800           0
     14148 MEMB     107      POPC     C35      CTL2    -0.180000       12.0110           0
     14149 MEMB     107      POPC     H5X      HAL2     0.900000E-01   1.00800           0
     14150 MEMB     107      POPC     H5Y      HAL2     0.900000E-01   1.00800           0
     14151 MEMB     107      POPC     C36      CTL2    -0.180000       12.0110           0
     14152 MEMB     107      POPC     H6X      HAL2     0.900000E-01   1.00800           0
     14153 MEMB     107      POPC     H6Y      HAL2     0.900000E-01   1.00800           0
     14154 MEMB     107      POPC     C37      CTL2    -0.180000       12.0110           0
     14155 MEMB     107      POPC     H7X      HAL2     0.900000E-01   1.00800           0
     14156 MEMB     107      POPC     H7Y      HAL2     0.900000E-01   1.00800           0
     14157 MEMB     107      POPC     C38      CTL2    -0.180000       12.0110           0
     14158 MEMB     107      POPC     H8X      HAL2     0.900000E-01   1.00800           0
     14159 MEMB     107      POPC     H8Y      HAL2     0.900000E-01   1.00800           0
     14160 MEMB     107      POPC     C39      CTL2    -0.180000       12.0110           0
     14161 MEMB     107      POPC     H9X      HAL2     0.900000E-01   1.00800           0
     14162 MEMB     107      POPC     H9Y      HAL2     0.900000E-01   1.00800           0
     14163 MEMB     107      POPC     C310     CTL2    -0.180000       12.0110           0
     14164 MEMB     107      POPC     H10X     HAL2     0.900000E-01   1.00800           0
     14165 MEMB     107      POPC     H10Y     HAL2     0.900000E-01   1.00800           0
     14166 MEMB     107      POPC     C311     CTL2    -0.180000       12.0110           0
     14167 MEMB     107      POPC     H11X     HAL2     0.900000E-01   1.00800           0
     14168 MEMB     107      POPC     H11Y     HAL2     0.900000E-01   1.00800           0
     14169 MEMB     107      POPC     C312     CTL2    -0.180000       12.0110           0
     14170 MEMB     107      POPC     H12X     HAL2     0.900000E-01   1.00800           0
     14171 MEMB     107      POPC     H12Y     HAL2     0.900000E-01   1.00800           0
     14172 MEMB     107      POPC     C313     CTL2    -0.180000       12.0110           0
     14173 MEMB     107      POPC     H13X     HAL2     0.900000E-01   1.00800           0
     14174 MEMB     107      POPC     H13Y     HAL2     0.900000E-01   1.00800           0
     14175 MEMB     107      POPC     C314     CTL2    -0.180000       12.0110           0
     14176 MEMB     107      POPC     H14X     HAL2     0.900000E-01   1.00800           0
     14177 MEMB     107      POPC     H14Y     HAL2     0.900000E-01   1.00800           0
     14178 MEMB     107      POPC     C315     CTL2    -0.180000       12.0110           0
     14179 MEMB     107      POPC     H15X     HAL2     0.900000E-01   1.00800           0
     14180 MEMB     107      POPC     H15Y     HAL2     0.900000E-01   1.00800           0
     14181 MEMB     107      POPC     C316     CTL3    -0.270000       12.0110           0
     14182 MEMB     107      POPC     H16X     HAL3     0.900000E-01   1.00800           0
     14183 MEMB     107      POPC     H16Y     HAL3     0.900000E-01   1.00800           0
     14184 MEMB     107      POPC     H16Z     HAL3     0.900000E-01   1.00800           0
     14185 MEMB     108      POPC     N        NTL     -0.600000       14.0070           0
     14186 MEMB     108      POPC     C12      CTL2    -0.100000       12.0110           0
     14187 MEMB     108      POPC     H12A     HL       0.250000       1.00800           0
     14188 MEMB     108      POPC     H12B     HL       0.250000       1.00800           0
     14189 MEMB     108      POPC     C13      CTL5    -0.350000       12.0110           0
     14190 MEMB     108      POPC     H13A     HL       0.250000       1.00800           0
     14191 MEMB     108      POPC     H13B     HL       0.250000       1.00800           0
     14192 MEMB     108      POPC     H13C     HL       0.250000       1.00800           0
     14193 MEMB     108      POPC     C14      CTL5    -0.350000       12.0110           0
     14194 MEMB     108      POPC     H14A     HL       0.250000       1.00800           0
     14195 MEMB     108      POPC     H14B     HL       0.250000       1.00800           0
     14196 MEMB     108      POPC     H14C     HL       0.250000       1.00800           0
     14197 MEMB     108      POPC     C15      CTL5    -0.350000       12.0110           0
     14198 MEMB     108      POPC     H15A     HL       0.250000       1.00800           0
     14199 MEMB     108      POPC     H15B     HL       0.250000       1.00800           0
     14200 MEMB     108      POPC     H15C     HL       0.250000       1.00800           0
     14201 MEMB     108      POPC     C11      CTL2    -0.800000E-01   12.0110           0
     14202 MEMB     108      POPC     H11A     HAL2     0.900000E-01   1.00800           0
     14203 MEMB     108      POPC     H11B     HAL2     0.900000E-01   1.00800           0
     14204 MEMB     108      POPC     P        PL        1.50000       30.9740           0
     14205 MEMB     108      POPC     O13      O2L     -0.780000       15.9994           0
     14206 MEMB     108      POPC     O14      O2L     -0.780000       15.9994           0
     14207 MEMB     108      POPC     O12      OSLP    -0.570000       15.9994           0
     14208 MEMB     108      POPC     O11      OSLP    -0.570000       15.9994           0
     14209 MEMB     108      POPC     C1       CTL2    -0.800000E-01   12.0110           0
     14210 MEMB     108      POPC     HA       HAL2     0.900000E-01   1.00800           0
     14211 MEMB     108      POPC     HB       HAL2     0.900000E-01   1.00800           0
     14212 MEMB     108      POPC     C2       CTL1     0.170000       12.0110           0
     14213 MEMB     108      POPC     HS       HAL1     0.900000E-01   1.00800           0
     14214 MEMB     108      POPC     O21      OSL     -0.490000       15.9994           0
     14215 MEMB     108      POPC     C21      CL       0.900000       12.0110           0
     14216 MEMB     108      POPC     O22      OBL     -0.630000       15.9994           0
     14217 MEMB     108      POPC     C22      CTL2    -0.220000       12.0110           0
     14218 MEMB     108      POPC     H2R      HAL2     0.900000E-01   1.00800           0
     14219 MEMB     108      POPC     H2S      HAL2     0.900000E-01   1.00800           0
     14220 MEMB     108      POPC     C3       CTL2     0.800000E-01   12.0110           0
     14221 MEMB     108      POPC     HX       HAL2     0.900000E-01   1.00800           0
     14222 MEMB     108      POPC     HY       HAL2     0.900000E-01   1.00800           0
     14223 MEMB     108      POPC     O31      OSL     -0.490000       15.9994           0
     14224 MEMB     108      POPC     C31      CL       0.900000       12.0110           0
     14225 MEMB     108      POPC     O32      OBL     -0.630000       15.9994           0
     14226 MEMB     108      POPC     C32      CTL2    -0.220000       12.0110           0
     14227 MEMB     108      POPC     H2X      HAL2     0.900000E-01   1.00800           0
     14228 MEMB     108      POPC     H2Y      HAL2     0.900000E-01   1.00800           0
     14229 MEMB     108      POPC     C23      CTL2    -0.180000       12.0110           0
     14230 MEMB     108      POPC     H3R      HAL2     0.900000E-01   1.00800           0
     14231 MEMB     108      POPC     H3S      HAL2     0.900000E-01   1.00800           0
     14232 MEMB     108      POPC     C24      CTL2    -0.180000       12.0110           0
     14233 MEMB     108      POPC     H4R      HAL2     0.900000E-01   1.00800           0
     14234 MEMB     108      POPC     H4S      HAL2     0.900000E-01   1.00800           0
     14235 MEMB     108      POPC     C25      CTL2    -0.180000       12.0110           0
     14236 MEMB     108      POPC     H5R      HAL2     0.900000E-01   1.00800           0
     14237 MEMB     108      POPC     H5S      HAL2     0.900000E-01   1.00800           0
     14238 MEMB     108      POPC     C26      CTL2    -0.180000       12.0110           0
     14239 MEMB     108      POPC     H6R      HAL2     0.900000E-01   1.00800           0
     14240 MEMB     108      POPC     H6S      HAL2     0.900000E-01   1.00800           0
     14241 MEMB     108      POPC     C27      CTL2    -0.180000       12.0110           0
     14242 MEMB     108      POPC     H7R      HAL2     0.900000E-01   1.00800           0
     14243 MEMB     108      POPC     H7S      HAL2     0.900000E-01   1.00800           0
     14244 MEMB     108      POPC     C28      CTL2    -0.180000       12.0110           0
     14245 MEMB     108      POPC     H8R      HAL2     0.900000E-01   1.00800           0
     14246 MEMB     108      POPC     H8S      HAL2     0.900000E-01   1.00800           0
     14247 MEMB     108      POPC     C29      CEL1    -0.150000       12.0110           0
     14248 MEMB     108      POPC     H91      HEL1     0.150000       1.00800           0
     14249 MEMB     108      POPC     C210     CEL1    -0.150000       12.0110           0
     14250 MEMB     108      POPC     H101     HEL1     0.150000       1.00800           0
     14251 MEMB     108      POPC     C211     CTL2    -0.180000       12.0110           0
     14252 MEMB     108      POPC     H11R     HAL2     0.900000E-01   1.00800           0
     14253 MEMB     108      POPC     H11S     HAL2     0.900000E-01   1.00800           0
     14254 MEMB     108      POPC     C212     CTL2    -0.180000       12.0110           0
     14255 MEMB     108      POPC     H12R     HAL2     0.900000E-01   1.00800           0
     14256 MEMB     108      POPC     H12S     HAL2     0.900000E-01   1.00800           0
     14257 MEMB     108      POPC     C213     CTL2    -0.180000       12.0110           0
     14258 MEMB     108      POPC     H13R     HAL2     0.900000E-01   1.00800           0
     14259 MEMB     108      POPC     H13S     HAL2     0.900000E-01   1.00800           0
     14260 MEMB     108      POPC     C214     CTL2    -0.180000       12.0110           0
     14261 MEMB     108      POPC     H14R     HAL2     0.900000E-01   1.00800           0
     14262 MEMB     108      POPC     H14S     HAL2     0.900000E-01   1.00800           0
     14263 MEMB     108      POPC     C215     CTL2    -0.180000       12.0110           0
     14264 MEMB     108      POPC     H15R     HAL2     0.900000E-01   1.00800           0
     14265 MEMB     108      POPC     H15S     HAL2     0.900000E-01   1.00800           0
     14266 MEMB     108      POPC     C216     CTL2    -0.180000       12.0110           0
     14267 MEMB     108      POPC     H16R     HAL2     0.900000E-01   1.00800           0
     14268 MEMB     108      POPC     H16S     HAL2     0.900000E-01   1.00800           0
     14269 MEMB     108      POPC     C217     CTL2    -0.180000       12.0110           0
     14270 MEMB     108      POPC     H17R     HAL2     0.900000E-01   1.00800           0
     14271 MEMB     108      POPC     H17S     HAL2     0.900000E-01   1.00800           0
     14272 MEMB     108      POPC     C218     CTL3    -0.270000       12.0110           0
     14273 MEMB     108      POPC     H18R     HAL3     0.900000E-01   1.00800           0
     14274 MEMB     108      POPC     H18S     HAL3     0.900000E-01   1.00800           0
     14275 MEMB     108      POPC     H18T     HAL3     0.900000E-01   1.00800           0
     14276 MEMB     108      POPC     C33      CTL2    -0.180000       12.0110           0
     14277 MEMB     108      POPC     H3X      HAL2     0.900000E-01   1.00800           0
     14278 MEMB     108      POPC     H3Y      HAL2     0.900000E-01   1.00800           0
     14279 MEMB     108      POPC     C34      CTL2    -0.180000       12.0110           0
     14280 MEMB     108      POPC     H4X      HAL2     0.900000E-01   1.00800           0
     14281 MEMB     108      POPC     H4Y      HAL2     0.900000E-01   1.00800           0
     14282 MEMB     108      POPC     C35      CTL2    -0.180000       12.0110           0
     14283 MEMB     108      POPC     H5X      HAL2     0.900000E-01   1.00800           0
     14284 MEMB     108      POPC     H5Y      HAL2     0.900000E-01   1.00800           0
     14285 MEMB     108      POPC     C36      CTL2    -0.180000       12.0110           0
     14286 MEMB     108      POPC     H6X      HAL2     0.900000E-01   1.00800           0
     14287 MEMB     108      POPC     H6Y      HAL2     0.900000E-01   1.00800           0
     14288 MEMB     108      POPC     C37      CTL2    -0.180000       12.0110           0
     14289 MEMB     108      POPC     H7X      HAL2     0.900000E-01   1.00800           0
     14290 MEMB     108      POPC     H7Y      HAL2     0.900000E-01   1.00800           0
     14291 MEMB     108      POPC     C38      CTL2    -0.180000       12.0110           0
     14292 MEMB     108      POPC     H8X      HAL2     0.900000E-01   1.00800           0
     14293 MEMB     108      POPC     H8Y      HAL2     0.900000E-01   1.00800           0
     14294 MEMB     108      POPC     C39      CTL2    -0.180000       12.0110           0
     14295 MEMB     108      POPC     H9X      HAL2     0.900000E-01   1.00800           0
     14296 MEMB     108      POPC     H9Y      HAL2     0.900000E-01   1.00800           0
     14297 MEMB     108      POPC     C310     CTL2    -0.180000       12.0110           0
     14298 MEMB     108      POPC     H10X     HAL2     0.900000E-01   1.00800           0
     14299 MEMB     108      POPC     H10Y     HAL2     0.900000E-01   1.00800           0
     14300 MEMB     108      POPC     C311     CTL2    -0.180000       12.0110           0
     14301 MEMB     108      POPC     H11X     HAL2     0.900000E-01   1.00800           0
     14302 MEMB     108      POPC     H11Y     HAL2     0.900000E-01   1.00800           0
     14303 MEMB     108      POPC     C312     CTL2    -0.180000       12.0110           0
     14304 MEMB     108      POPC     H12X     HAL2     0.900000E-01   1.00800           0
     14305 MEMB     108      POPC     H12Y     HAL2     0.900000E-01   1.00800           0
     14306 MEMB     108      POPC     C313     CTL2    -0.180000       12.0110           0
     14307 MEMB     108      POPC     H13X     HAL2     0.900000E-01   1.00800           0
     14308 MEMB     108      POPC     H13Y     HAL2     0.900000E-01   1.00800           0
     14309 MEMB     108      POPC     C314     CTL2    -0.180000       12.0110           0
     14310 MEMB     108      POPC     H14X     HAL2     0.900000E-01   1.00800           0
     14311 MEMB     108      POPC     H14Y     HAL2     0.900000E-01   1.00800           0
     14312 MEMB     108      POPC     C315     CTL2    -0.180000       12.0110           0
     14313 MEMB     108      POPC     H15X     HAL2     0.900000E-01   1.00800           0
     14314 MEMB     108      POPC     H15Y     HAL2     0.900000E-01   1.00800           0
     14315 MEMB     108      POPC     C316     CTL3    -0.270000       12.0110           0
     14316 MEMB     108      POPC     H16X     HAL3     0.900000E-01   1.00800           0
     14317 MEMB     108      POPC     H16Y     HAL3     0.900000E-01   1.00800           0
     14318 MEMB     108      POPC     H16Z     HAL3     0.900000E-01   1.00800           0
     14319 MEMB     109      POPC     N        NTL     -0.600000       14.0070           0
     14320 MEMB     109      POPC     C12      CTL2    -0.100000       12.0110           0
     14321 MEMB     109      POPC     H12A     HL       0.250000       1.00800           0
     14322 MEMB     109      POPC     H12B     HL       0.250000       1.00800           0
     14323 MEMB     109      POPC     C13      CTL5    -0.350000       12.0110           0
     14324 MEMB     109      POPC     H13A     HL       0.250000       1.00800           0
     14325 MEMB     109      POPC     H13B     HL       0.250000       1.00800           0
     14326 MEMB     109      POPC     H13C     HL       0.250000       1.00800           0
     14327 MEMB     109      POPC     C14      CTL5    -0.350000       12.0110           0
     14328 MEMB     109      POPC     H14A     HL       0.250000       1.00800           0
     14329 MEMB     109      POPC     H14B     HL       0.250000       1.00800           0
     14330 MEMB     109      POPC     H14C     HL       0.250000       1.00800           0
     14331 MEMB     109      POPC     C15      CTL5    -0.350000       12.0110           0
     14332 MEMB     109      POPC     H15A     HL       0.250000       1.00800           0
     14333 MEMB     109      POPC     H15B     HL       0.250000       1.00800           0
     14334 MEMB     109      POPC     H15C     HL       0.250000       1.00800           0
     14335 MEMB     109      POPC     C11      CTL2    -0.800000E-01   12.0110           0
     14336 MEMB     109      POPC     H11A     HAL2     0.900000E-01   1.00800           0
     14337 MEMB     109      POPC     H11B     HAL2     0.900000E-01   1.00800           0
     14338 MEMB     109      POPC     P        PL        1.50000       30.9740           0
     14339 MEMB     109      POPC     O13      O2L     -0.780000       15.9994           0
     14340 MEMB     109      POPC     O14      O2L     -0.780000       15.9994           0
     14341 MEMB     109      POPC     O12      OSLP    -0.570000       15.9994           0
     14342 MEMB     109      POPC     O11      OSLP    -0.570000       15.9994           0
     14343 MEMB     109      POPC     C1       CTL2    -0.800000E-01   12.0110           0
     14344 MEMB     109      POPC     HA       HAL2     0.900000E-01   1.00800           0
     14345 MEMB     109      POPC     HB       HAL2     0.900000E-01   1.00800           0
     14346 MEMB     109      POPC     C2       CTL1     0.170000       12.0110           0
     14347 MEMB     109      POPC     HS       HAL1     0.900000E-01   1.00800           0
     14348 MEMB     109      POPC     O21      OSL     -0.490000       15.9994           0
     14349 MEMB     109      POPC     C21      CL       0.900000       12.0110           0
     14350 MEMB     109      POPC     O22      OBL     -0.630000       15.9994           0
     14351 MEMB     109      POPC     C22      CTL2    -0.220000       12.0110           0
     14352 MEMB     109      POPC     H2R      HAL2     0.900000E-01   1.00800           0
     14353 MEMB     109      POPC     H2S      HAL2     0.900000E-01   1.00800           0
     14354 MEMB     109      POPC     C3       CTL2     0.800000E-01   12.0110           0
     14355 MEMB     109      POPC     HX       HAL2     0.900000E-01   1.00800           0
     14356 MEMB     109      POPC     HY       HAL2     0.900000E-01   1.00800           0
     14357 MEMB     109      POPC     O31      OSL     -0.490000       15.9994           0
     14358 MEMB     109      POPC     C31      CL       0.900000       12.0110           0
     14359 MEMB     109      POPC     O32      OBL     -0.630000       15.9994           0
     14360 MEMB     109      POPC     C32      CTL2    -0.220000       12.0110           0
     14361 MEMB     109      POPC     H2X      HAL2     0.900000E-01   1.00800           0
     14362 MEMB     109      POPC     H2Y      HAL2     0.900000E-01   1.00800           0
     14363 MEMB     109      POPC     C23      CTL2    -0.180000       12.0110           0
     14364 MEMB     109      POPC     H3R      HAL2     0.900000E-01   1.00800           0
     14365 MEMB     109      POPC     H3S      HAL2     0.900000E-01   1.00800           0
     14366 MEMB     109      POPC     C24      CTL2    -0.180000       12.0110           0
     14367 MEMB     109      POPC     H4R      HAL2     0.900000E-01   1.00800           0
     14368 MEMB     109      POPC     H4S      HAL2     0.900000E-01   1.00800           0
     14369 MEMB     109      POPC     C25      CTL2    -0.180000       12.0110           0
     14370 MEMB     109      POPC     H5R      HAL2     0.900000E-01   1.00800           0
     14371 MEMB     109      POPC     H5S      HAL2     0.900000E-01   1.00800           0
     14372 MEMB     109      POPC     C26      CTL2    -0.180000       12.0110           0
     14373 MEMB     109      POPC     H6R      HAL2     0.900000E-01   1.00800           0
     14374 MEMB     109      POPC     H6S      HAL2     0.900000E-01   1.00800           0
     14375 MEMB     109      POPC     C27      CTL2    -0.180000       12.0110           0
     14376 MEMB     109      POPC     H7R      HAL2     0.900000E-01   1.00800           0
     14377 MEMB     109      POPC     H7S      HAL2     0.900000E-01   1.00800           0
     14378 MEMB     109      POPC     C28      CTL2    -0.180000       12.0110           0
     14379 MEMB     109      POPC     H8R      HAL2     0.900000E-01   1.00800           0
     14380 MEMB     109      POPC     H8S      HAL2     0.900000E-01   1.00800           0
     14381 MEMB     109      POPC     C29      CEL1    -0.150000       12.0110           0
     14382 MEMB     109      POPC     H91      HEL1     0.150000       1.00800           0
     14383 MEMB     109      POPC     C210     CEL1    -0.150000       12.0110           0
     14384 MEMB     109      POPC     H101     HEL1     0.150000       1.00800           0
     14385 MEMB     109      POPC     C211     CTL2    -0.180000       12.0110           0
     14386 MEMB     109      POPC     H11R     HAL2     0.900000E-01   1.00800           0
     14387 MEMB     109      POPC     H11S     HAL2     0.900000E-01   1.00800           0
     14388 MEMB     109      POPC     C212     CTL2    -0.180000       12.0110           0
     14389 MEMB     109      POPC     H12R     HAL2     0.900000E-01   1.00800           0
     14390 MEMB     109      POPC     H12S     HAL2     0.900000E-01   1.00800           0
     14391 MEMB     109      POPC     C213     CTL2    -0.180000       12.0110           0
     14392 MEMB     109      POPC     H13R     HAL2     0.900000E-01   1.00800           0
     14393 MEMB     109      POPC     H13S     HAL2     0.900000E-01   1.00800           0
     14394 MEMB     109      POPC     C214     CTL2    -0.180000       12.0110           0
     14395 MEMB     109      POPC     H14R     HAL2     0.900000E-01   1.00800           0
     14396 MEMB     109      POPC     H14S     HAL2     0.900000E-01   1.00800           0
     14397 MEMB     109      POPC     C215     CTL2    -0.180000       12.0110           0
     14398 MEMB     109      POPC     H15R     HAL2     0.900000E-01   1.00800           0
     14399 MEMB     109      POPC     H15S     HAL2     0.900000E-01   1.00800           0
     14400 MEMB     109      POPC     C216     CTL2    -0.180000       12.0110           0
     14401 MEMB     109      POPC     H16R     HAL2     0.900000E-01   1.00800           0
     14402 MEMB     109      POPC     H16S     HAL2     0.900000E-01   1.00800           0
     14403 MEMB     109      POPC     C217     CTL2    -0.180000       12.0110           0
     14404 MEMB     109      POPC     H17R     HAL2     0.900000E-01   1.00800           0
     14405 MEMB     109      POPC     H17S     HAL2     0.900000E-01   1.00800           0
     14406 MEMB     109      POPC     C218     CTL3    -0.270000       12.0110           0
     14407 MEMB     109      POPC     H18R     HAL3     0.900000E-01   1.00800           0
     14408 MEMB     109      POPC     H18S     HAL3     0.900000E-01   1.00800           0
     14409 MEMB     109      POPC     H18T     HAL3     0.900000E-01   1.00800           0
     14410 MEMB     109      POPC     C33      CTL2    -0.180000       12.0110           0
     14411 MEMB     109      POPC     H3X      HAL2     0.900000E-01   1.00800           0
     14412 MEMB     109      POPC     H3Y      HAL2     0.900000E-01   1.00800           0
     14413 MEMB     109      POPC     C34      CTL2    -0.180000       12.0110           0
     14414 MEMB     109      POPC     H4X      HAL2     0.900000E-01   1.00800           0
     14415 MEMB     109      POPC     H4Y      HAL2     0.900000E-01   1.00800           0
     14416 MEMB     109      POPC     C35      CTL2    -0.180000       12.0110           0
     14417 MEMB     109      POPC     H5X      HAL2     0.900000E-01   1.00800           0
     14418 MEMB     109      POPC     H5Y      HAL2     0.900000E-01   1.00800           0
     14419 MEMB     109      POPC     C36      CTL2    -0.180000       12.0110           0
     14420 MEMB     109      POPC     H6X      HAL2     0.900000E-01   1.00800           0
     14421 MEMB     109      POPC     H6Y      HAL2     0.900000E-01   1.00800           0
     14422 MEMB     109      POPC     C37      CTL2    -0.180000       12.0110           0
     14423 MEMB     109      POPC     H7X      HAL2     0.900000E-01   1.00800           0
     14424 MEMB     109      POPC     H7Y      HAL2     0.900000E-01   1.00800           0
     14425 MEMB     109      POPC     C38      CTL2    -0.180000       12.0110           0
     14426 MEMB     109      POPC     H8X      HAL2     0.900000E-01   1.00800           0
     14427 MEMB     109      POPC     H8Y      HAL2     0.900000E-01   1.00800           0
     14428 MEMB     109      POPC     C39      CTL2    -0.180000       12.0110           0
     14429 MEMB     109      POPC     H9X      HAL2     0.900000E-01   1.00800           0
     14430 MEMB     109      POPC     H9Y      HAL2     0.900000E-01   1.00800           0
     14431 MEMB     109      POPC     C310     CTL2    -0.180000       12.0110           0
     14432 MEMB     109      POPC     H10X     HAL2     0.900000E-01   1.00800           0
     14433 MEMB     109      POPC     H10Y     HAL2     0.900000E-01   1.00800           0
     14434 MEMB     109      POPC     C311     CTL2    -0.180000       12.0110           0
     14435 MEMB     109      POPC     H11X     HAL2     0.900000E-01   1.00800           0
     14436 MEMB     109      POPC     H11Y     HAL2     0.900000E-01   1.00800           0
     14437 MEMB     109      POPC     C312     CTL2    -0.180000       12.0110           0
     14438 MEMB     109      POPC     H12X     HAL2     0.900000E-01   1.00800           0
     14439 MEMB     109      POPC     H12Y     HAL2     0.900000E-01   1.00800           0
     14440 MEMB     109      POPC     C313     CTL2    -0.180000       12.0110           0
     14441 MEMB     109      POPC     H13X     HAL2     0.900000E-01   1.00800           0
     14442 MEMB     109      POPC     H13Y     HAL2     0.900000E-01   1.00800           0
     14443 MEMB     109      POPC     C314     CTL2    -0.180000       12.0110           0
     14444 MEMB     109      POPC     H14X     HAL2     0.900000E-01   1.00800           0
     14445 MEMB     109      POPC     H14Y     HAL2     0.900000E-01   1.00800           0
     14446 MEMB     109      POPC     C315     CTL2    -0.180000       12.0110           0
     14447 MEMB     109      POPC     H15X     HAL2     0.900000E-01   1.00800           0
     14448 MEMB     109      POPC     H15Y     HAL2     0.900000E-01   1.00800           0
     14449 MEMB     109      POPC     C316     CTL3    -0.270000       12.0110           0
     14450 MEMB     109      POPC     H16X     HAL3     0.900000E-01   1.00800           0
     14451 MEMB     109      POPC     H16Y     HAL3     0.900000E-01   1.00800           0
     14452 MEMB     109      POPC     H16Z     HAL3     0.900000E-01   1.00800           0
     14453 MEMB     110      POPC     N        NTL     -0.600000       14.0070           0
     14454 MEMB     110      POPC     C12      CTL2    -0.100000       12.0110           0
     14455 MEMB     110      POPC     H12A     HL       0.250000       1.00800           0
     14456 MEMB     110      POPC     H12B     HL       0.250000       1.00800           0
     14457 MEMB     110      POPC     C13      CTL5    -0.350000       12.0110           0
     14458 MEMB     110      POPC     H13A     HL       0.250000       1.00800           0
     14459 MEMB     110      POPC     H13B     HL       0.250000       1.00800           0
     14460 MEMB     110      POPC     H13C     HL       0.250000       1.00800           0
     14461 MEMB     110      POPC     C14      CTL5    -0.350000       12.0110           0
     14462 MEMB     110      POPC     H14A     HL       0.250000       1.00800           0
     14463 MEMB     110      POPC     H14B     HL       0.250000       1.00800           0
     14464 MEMB     110      POPC     H14C     HL       0.250000       1.00800           0
     14465 MEMB     110      POPC     C15      CTL5    -0.350000       12.0110           0
     14466 MEMB     110      POPC     H15A     HL       0.250000       1.00800           0
     14467 MEMB     110      POPC     H15B     HL       0.250000       1.00800           0
     14468 MEMB     110      POPC     H15C     HL       0.250000       1.00800           0
     14469 MEMB     110      POPC     C11      CTL2    -0.800000E-01   12.0110           0
     14470 MEMB     110      POPC     H11A     HAL2     0.900000E-01   1.00800           0
     14471 MEMB     110      POPC     H11B     HAL2     0.900000E-01   1.00800           0
     14472 MEMB     110      POPC     P        PL        1.50000       30.9740           0
     14473 MEMB     110      POPC     O13      O2L     -0.780000       15.9994           0
     14474 MEMB     110      POPC     O14      O2L     -0.780000       15.9994           0
     14475 MEMB     110      POPC     O12      OSLP    -0.570000       15.9994           0
     14476 MEMB     110      POPC     O11      OSLP    -0.570000       15.9994           0
     14477 MEMB     110      POPC     C1       CTL2    -0.800000E-01   12.0110           0
     14478 MEMB     110      POPC     HA       HAL2     0.900000E-01   1.00800           0
     14479 MEMB     110      POPC     HB       HAL2     0.900000E-01   1.00800           0
     14480 MEMB     110      POPC     C2       CTL1     0.170000       12.0110           0
     14481 MEMB     110      POPC     HS       HAL1     0.900000E-01   1.00800           0
     14482 MEMB     110      POPC     O21      OSL     -0.490000       15.9994           0
     14483 MEMB     110      POPC     C21      CL       0.900000       12.0110           0
     14484 MEMB     110      POPC     O22      OBL     -0.630000       15.9994           0
     14485 MEMB     110      POPC     C22      CTL2    -0.220000       12.0110           0
     14486 MEMB     110      POPC     H2R      HAL2     0.900000E-01   1.00800           0
     14487 MEMB     110      POPC     H2S      HAL2     0.900000E-01   1.00800           0
     14488 MEMB     110      POPC     C3       CTL2     0.800000E-01   12.0110           0
     14489 MEMB     110      POPC     HX       HAL2     0.900000E-01   1.00800           0
     14490 MEMB     110      POPC     HY       HAL2     0.900000E-01   1.00800           0
     14491 MEMB     110      POPC     O31      OSL     -0.490000       15.9994           0
     14492 MEMB     110      POPC     C31      CL       0.900000       12.0110           0
     14493 MEMB     110      POPC     O32      OBL     -0.630000       15.9994           0
     14494 MEMB     110      POPC     C32      CTL2    -0.220000       12.0110           0
     14495 MEMB     110      POPC     H2X      HAL2     0.900000E-01   1.00800           0
     14496 MEMB     110      POPC     H2Y      HAL2     0.900000E-01   1.00800           0
     14497 MEMB     110      POPC     C23      CTL2    -0.180000       12.0110           0
     14498 MEMB     110      POPC     H3R      HAL2     0.900000E-01   1.00800           0
     14499 MEMB     110      POPC     H3S      HAL2     0.900000E-01   1.00800           0
     14500 MEMB     110      POPC     C24      CTL2    -0.180000       12.0110           0
     14501 MEMB     110      POPC     H4R      HAL2     0.900000E-01   1.00800           0
     14502 MEMB     110      POPC     H4S      HAL2     0.900000E-01   1.00800           0
     14503 MEMB     110      POPC     C25      CTL2    -0.180000       12.0110           0
     14504 MEMB     110      POPC     H5R      HAL2     0.900000E-01   1.00800           0
     14505 MEMB     110      POPC     H5S      HAL2     0.900000E-01   1.00800           0
     14506 MEMB     110      POPC     C26      CTL2    -0.180000       12.0110           0
     14507 MEMB     110      POPC     H6R      HAL2     0.900000E-01   1.00800           0
     14508 MEMB     110      POPC     H6S      HAL2     0.900000E-01   1.00800           0
     14509 MEMB     110      POPC     C27      CTL2    -0.180000       12.0110           0
     14510 MEMB     110      POPC     H7R      HAL2     0.900000E-01   1.00800           0
     14511 MEMB     110      POPC     H7S      HAL2     0.900000E-01   1.00800           0
     14512 MEMB     110      POPC     C28      CTL2    -0.180000       12.0110           0
     14513 MEMB     110      POPC     H8R      HAL2     0.900000E-01   1.00800           0
     14514 MEMB     110      POPC     H8S      HAL2     0.900000E-01   1.00800           0
     14515 MEMB     110      POPC     C29      CEL1    -0.150000       12.0110           0
     14516 MEMB     110      POPC     H91      HEL1     0.150000       1.00800           0
     14517 MEMB     110      POPC     C210     CEL1    -0.150000       12.0110           0
     14518 MEMB     110      POPC     H101     HEL1     0.150000       1.00800           0
     14519 MEMB     110      POPC     C211     CTL2    -0.180000       12.0110           0
     14520 MEMB     110      POPC     H11R     HAL2     0.900000E-01   1.00800           0
     14521 MEMB     110      POPC     H11S     HAL2     0.900000E-01   1.00800           0
     14522 MEMB     110      POPC     C212     CTL2    -0.180000       12.0110           0
     14523 MEMB     110      POPC     H12R     HAL2     0.900000E-01   1.00800           0
     14524 MEMB     110      POPC     H12S     HAL2     0.900000E-01   1.00800           0
     14525 MEMB     110      POPC     C213     CTL2    -0.180000       12.0110           0
     14526 MEMB     110      POPC     H13R     HAL2     0.900000E-01   1.00800           0
     14527 MEMB     110      POPC     H13S     HAL2     0.900000E-01   1.00800           0
     14528 MEMB     110      POPC     C214     CTL2    -0.180000       12.0110           0
     14529 MEMB     110      POPC     H14R     HAL2     0.900000E-01   1.00800           0
     14530 MEMB     110      POPC     H14S     HAL2     0.900000E-01   1.00800           0
     14531 MEMB     110      POPC     C215     CTL2    -0.180000       12.0110           0
     14532 MEMB     110      POPC     H15R     HAL2     0.900000E-01   1.00800           0
     14533 MEMB     110      POPC     H15S     HAL2     0.900000E-01   1.00800           0
     14534 MEMB     110      POPC     C216     CTL2    -0.180000       12.0110           0
     14535 MEMB     110      POPC     H16R     HAL2     0.900000E-01   1.00800           0
     14536 MEMB     110      POPC     H16S     HAL2     0.900000E-01   1.00800           0
     14537 MEMB     110      POPC     C217     CTL2    -0.180000       12.0110           0
     14538 MEMB     110      POPC     H17R     HAL2     0.900000E-01   1.00800           0
     14539 MEMB     110      POPC     H17S     HAL2     0.900000E-01   1.00800           0
     14540 MEMB     110      POPC     C218     CTL3    -0.270000       12.0110           0
     14541 MEMB     110      POPC     H18R     HAL3     0.900000E-01   1.00800           0
     14542 MEMB     110      POPC     H18S     HAL3     0.900000E-01   1.00800           0
     14543 MEMB     110      POPC     H18T     HAL3     0.900000E-01   1.00800           0
     14544 MEMB     110      POPC     C33      CTL2    -0.180000       12.0110           0
     14545 MEMB     110      POPC     H3X      HAL2     0.900000E-01   1.00800           0
     14546 MEMB     110      POPC     H3Y      HAL2     0.900000E-01   1.00800           0
     14547 MEMB     110      POPC     C34      CTL2    -0.180000       12.0110           0
     14548 MEMB     110      POPC     H4X      HAL2     0.900000E-01   1.00800           0
     14549 MEMB     110      POPC     H4Y      HAL2     0.900000E-01   1.00800           0
     14550 MEMB     110      POPC     C35      CTL2    -0.180000       12.0110           0
     14551 MEMB     110      POPC     H5X      HAL2     0.900000E-01   1.00800           0
     14552 MEMB     110      POPC     H5Y      HAL2     0.900000E-01   1.00800           0
     14553 MEMB     110      POPC     C36      CTL2    -0.180000       12.0110           0
     14554 MEMB     110      POPC     H6X      HAL2     0.900000E-01   1.00800           0
     14555 MEMB     110      POPC     H6Y      HAL2     0.900000E-01   1.00800           0
     14556 MEMB     110      POPC     C37      CTL2    -0.180000       12.0110           0
     14557 MEMB     110      POPC     H7X      HAL2     0.900000E-01   1.00800           0
     14558 MEMB     110      POPC     H7Y      HAL2     0.900000E-01   1.00800           0
     14559 MEMB     110      POPC     C38      CTL2    -0.180000       12.0110           0
     14560 MEMB     110      POPC     H8X      HAL2     0.900000E-01   1.00800           0
     14561 MEMB     110      POPC     H8Y      HAL2     0.900000E-01   1.00800           0
     14562 MEMB     110      POPC     C39      CTL2    -0.180000       12.0110           0
     14563 MEMB     110      POPC     H9X      HAL2     0.900000E-01   1.00800           0
     14564 MEMB     110      POPC     H9Y      HAL2     0.900000E-01   1.00800           0
     14565 MEMB     110      POPC     C310     CTL2    -0.180000       12.0110           0
     14566 MEMB     110      POPC     H10X     HAL2     0.900000E-01   1.00800           0
     14567 MEMB     110      POPC     H10Y     HAL2     0.900000E-01   1.00800           0
     14568 MEMB     110      POPC     C311     CTL2    -0.180000       12.0110           0
     14569 MEMB     110      POPC     H11X     HAL2     0.900000E-01   1.00800           0
     14570 MEMB     110      POPC     H11Y     HAL2     0.900000E-01   1.00800           0
     14571 MEMB     110      POPC     C312     CTL2    -0.180000       12.0110           0
     14572 MEMB     110      POPC     H12X     HAL2     0.900000E-01   1.00800           0
     14573 MEMB     110      POPC     H12Y     HAL2     0.900000E-01   1.00800           0
     14574 MEMB     110      POPC     C313     CTL2    -0.180000       12.0110           0
     14575 MEMB     110      POPC     H13X     HAL2     0.900000E-01   1.00800           0
     14576 MEMB     110      POPC     H13Y     HAL2     0.900000E-01   1.00800           0
     14577 MEMB     110      POPC     C314     CTL2    -0.180000       12.0110           0
     14578 MEMB     110      POPC     H14X     HAL2     0.900000E-01   1.00800           0
     14579 MEMB     110      POPC     H14Y     HAL2     0.900000E-01   1.00800           0
     14580 MEMB     110      POPC     C315     CTL2    -0.180000       12.0110           0
     14581 MEMB     110      POPC     H15X     HAL2     0.900000E-01   1.00800           0
     14582 MEMB     110      POPC     H15Y     HAL2     0.900000E-01   1.00800           0
     14583 MEMB     110      POPC     C316     CTL3    -0.270000       12.0110           0
     14584 MEMB     110      POPC     H16X     HAL3     0.900000E-01   1.00800           0
     14585 MEMB     110      POPC     H16Y     HAL3     0.900000E-01   1.00800           0
     14586 MEMB     110      POPC     H16Z     HAL3     0.900000E-01   1.00800           0
     14587 MEMB     111      POPC     N        NTL     -0.600000       14.0070           0
     14588 MEMB     111      POPC     C12      CTL2    -0.100000       12.0110           0
     14589 MEMB     111      POPC     H12A     HL       0.250000       1.00800           0
     14590 MEMB     111      POPC     H12B     HL       0.250000       1.00800           0
     14591 MEMB     111      POPC     C13      CTL5    -0.350000       12.0110           0
     14592 MEMB     111      POPC     H13A     HL       0.250000       1.00800           0
     14593 MEMB     111      POPC     H13B     HL       0.250000       1.00800           0
     14594 MEMB     111      POPC     H13C     HL       0.250000       1.00800           0
     14595 MEMB     111      POPC     C14      CTL5    -0.350000       12.0110           0
     14596 MEMB     111      POPC     H14A     HL       0.250000       1.00800           0
     14597 MEMB     111      POPC     H14B     HL       0.250000       1.00800           0
     14598 MEMB     111      POPC     H14C     HL       0.250000       1.00800           0
     14599 MEMB     111      POPC     C15      CTL5    -0.350000       12.0110           0
     14600 MEMB     111      POPC     H15A     HL       0.250000       1.00800           0
     14601 MEMB     111      POPC     H15B     HL       0.250000       1.00800           0
     14602 MEMB     111      POPC     H15C     HL       0.250000       1.00800           0
     14603 MEMB     111      POPC     C11      CTL2    -0.800000E-01   12.0110           0
     14604 MEMB     111      POPC     H11A     HAL2     0.900000E-01   1.00800           0
     14605 MEMB     111      POPC     H11B     HAL2     0.900000E-01   1.00800           0
     14606 MEMB     111      POPC     P        PL        1.50000       30.9740           0
     14607 MEMB     111      POPC     O13      O2L     -0.780000       15.9994           0
     14608 MEMB     111      POPC     O14      O2L     -0.780000       15.9994           0
     14609 MEMB     111      POPC     O12      OSLP    -0.570000       15.9994           0
     14610 MEMB     111      POPC     O11      OSLP    -0.570000       15.9994           0
     14611 MEMB     111      POPC     C1       CTL2    -0.800000E-01   12.0110           0
     14612 MEMB     111      POPC     HA       HAL2     0.900000E-01   1.00800           0
     14613 MEMB     111      POPC     HB       HAL2     0.900000E-01   1.00800           0
     14614 MEMB     111      POPC     C2       CTL1     0.170000       12.0110           0
     14615 MEMB     111      POPC     HS       HAL1     0.900000E-01   1.00800           0
     14616 MEMB     111      POPC     O21      OSL     -0.490000       15.9994           0
     14617 MEMB     111      POPC     C21      CL       0.900000       12.0110           0
     14618 MEMB     111      POPC     O22      OBL     -0.630000       15.9994           0
     14619 MEMB     111      POPC     C22      CTL2    -0.220000       12.0110           0
     14620 MEMB     111      POPC     H2R      HAL2     0.900000E-01   1.00800           0
     14621 MEMB     111      POPC     H2S      HAL2     0.900000E-01   1.00800           0
     14622 MEMB     111      POPC     C3       CTL2     0.800000E-01   12.0110           0
     14623 MEMB     111      POPC     HX       HAL2     0.900000E-01   1.00800           0
     14624 MEMB     111      POPC     HY       HAL2     0.900000E-01   1.00800           0
     14625 MEMB     111      POPC     O31      OSL     -0.490000       15.9994           0
     14626 MEMB     111      POPC     C31      CL       0.900000       12.0110           0
     14627 MEMB     111      POPC     O32      OBL     -0.630000       15.9994           0
     14628 MEMB     111      POPC     C32      CTL2    -0.220000       12.0110           0
     14629 MEMB     111      POPC     H2X      HAL2     0.900000E-01   1.00800           0
     14630 MEMB     111      POPC     H2Y      HAL2     0.900000E-01   1.00800           0
     14631 MEMB     111      POPC     C23      CTL2    -0.180000       12.0110           0
     14632 MEMB     111      POPC     H3R      HAL2     0.900000E-01   1.00800           0
     14633 MEMB     111      POPC     H3S      HAL2     0.900000E-01   1.00800           0
     14634 MEMB     111      POPC     C24      CTL2    -0.180000       12.0110           0
     14635 MEMB     111      POPC     H4R      HAL2     0.900000E-01   1.00800           0
     14636 MEMB     111      POPC     H4S      HAL2     0.900000E-01   1.00800           0
     14637 MEMB     111      POPC     C25      CTL2    -0.180000       12.0110           0
     14638 MEMB     111      POPC     H5R      HAL2     0.900000E-01   1.00800           0
     14639 MEMB     111      POPC     H5S      HAL2     0.900000E-01   1.00800           0
     14640 MEMB     111      POPC     C26      CTL2    -0.180000       12.0110           0
     14641 MEMB     111      POPC     H6R      HAL2     0.900000E-01   1.00800           0
     14642 MEMB     111      POPC     H6S      HAL2     0.900000E-01   1.00800           0
     14643 MEMB     111      POPC     C27      CTL2    -0.180000       12.0110           0
     14644 MEMB     111      POPC     H7R      HAL2     0.900000E-01   1.00800           0
     14645 MEMB     111      POPC     H7S      HAL2     0.900000E-01   1.00800           0
     14646 MEMB     111      POPC     C28      CTL2    -0.180000       12.0110           0
     14647 MEMB     111      POPC     H8R      HAL2     0.900000E-01   1.00800           0
     14648 MEMB     111      POPC     H8S      HAL2     0.900000E-01   1.00800           0
     14649 MEMB     111      POPC     C29      CEL1    -0.150000       12.0110           0
     14650 MEMB     111      POPC     H91      HEL1     0.150000       1.00800           0
     14651 MEMB     111      POPC     C210     CEL1    -0.150000       12.0110           0
     14652 MEMB     111      POPC     H101     HEL1     0.150000       1.00800           0
     14653 MEMB     111      POPC     C211     CTL2    -0.180000       12.0110           0
     14654 MEMB     111      POPC     H11R     HAL2     0.900000E-01   1.00800           0
     14655 MEMB     111      POPC     H11S     HAL2     0.900000E-01   1.00800           0
     14656 MEMB     111      POPC     C212     CTL2    -0.180000       12.0110           0
     14657 MEMB     111      POPC     H12R     HAL2     0.900000E-01   1.00800           0
     14658 MEMB     111      POPC     H12S     HAL2     0.900000E-01   1.00800           0
     14659 MEMB     111      POPC     C213     CTL2    -0.180000       12.0110           0
     14660 MEMB     111      POPC     H13R     HAL2     0.900000E-01   1.00800           0
     14661 MEMB     111      POPC     H13S     HAL2     0.900000E-01   1.00800           0
     14662 MEMB     111      POPC     C214     CTL2    -0.180000       12.0110           0
     14663 MEMB     111      POPC     H14R     HAL2     0.900000E-01   1.00800           0
     14664 MEMB     111      POPC     H14S     HAL2     0.900000E-01   1.00800           0
     14665 MEMB     111      POPC     C215     CTL2    -0.180000       12.0110           0
     14666 MEMB     111      POPC     H15R     HAL2     0.900000E-01   1.00800           0
     14667 MEMB     111      POPC     H15S     HAL2     0.900000E-01   1.00800           0
     14668 MEMB     111      POPC     C216     CTL2    -0.180000       12.0110           0
     14669 MEMB     111      POPC     H16R     HAL2     0.900000E-01   1.00800           0
     14670 MEMB     111      POPC     H16S     HAL2     0.900000E-01   1.00800           0
     14671 MEMB     111      POPC     C217     CTL2    -0.180000       12.0110           0
     14672 MEMB     111      POPC     H17R     HAL2     0.900000E-01   1.00800           0
     14673 MEMB     111      POPC     H17S     HAL2     0.900000E-01   1.00800           0
     14674 MEMB     111      POPC     C218     CTL3    -0.270000       12.0110           0
     14675 MEMB     111      POPC     H18R     HAL3     0.900000E-01   1.00800           0
     14676 MEMB     111      POPC     H18S     HAL3     0.900000E-01   1.00800           0
     14677 MEMB     111      POPC     H18T     HAL3     0.900000E-01   1.00800           0
     14678 MEMB     111      POPC     C33      CTL2    -0.180000       12.0110           0
     14679 MEMB     111      POPC     H3X      HAL2     0.900000E-01   1.00800           0
     14680 MEMB     111      POPC     H3Y      HAL2     0.900000E-01   1.00800           0
     14681 MEMB     111      POPC     C34      CTL2    -0.180000       12.0110           0
     14682 MEMB     111      POPC     H4X      HAL2     0.900000E-01   1.00800           0
     14683 MEMB     111      POPC     H4Y      HAL2     0.900000E-01   1.00800           0
     14684 MEMB     111      POPC     C35      CTL2    -0.180000       12.0110           0
     14685 MEMB     111      POPC     H5X      HAL2     0.900000E-01   1.00800           0
     14686 MEMB     111      POPC     H5Y      HAL2     0.900000E-01   1.00800           0
     14687 MEMB     111      POPC     C36      CTL2    -0.180000       12.0110           0
     14688 MEMB     111      POPC     H6X      HAL2     0.900000E-01   1.00800           0
     14689 MEMB     111      POPC     H6Y      HAL2     0.900000E-01   1.00800           0
     14690 MEMB     111      POPC     C37      CTL2    -0.180000       12.0110           0
     14691 MEMB     111      POPC     H7X      HAL2     0.900000E-01   1.00800           0
     14692 MEMB     111      POPC     H7Y      HAL2     0.900000E-01   1.00800           0
     14693 MEMB     111      POPC     C38      CTL2    -0.180000       12.0110           0
     14694 MEMB     111      POPC     H8X      HAL2     0.900000E-01   1.00800           0
     14695 MEMB     111      POPC     H8Y      HAL2     0.900000E-01   1.00800           0
     14696 MEMB     111      POPC     C39      CTL2    -0.180000       12.0110           0
     14697 MEMB     111      POPC     H9X      HAL2     0.900000E-01   1.00800           0
     14698 MEMB     111      POPC     H9Y      HAL2     0.900000E-01   1.00800           0
     14699 MEMB     111      POPC     C310     CTL2    -0.180000       12.0110           0
     14700 MEMB     111      POPC     H10X     HAL2     0.900000E-01   1.00800           0
     14701 MEMB     111      POPC     H10Y     HAL2     0.900000E-01   1.00800           0
     14702 MEMB     111      POPC     C311     CTL2    -0.180000       12.0110           0
     14703 MEMB     111      POPC     H11X     HAL2     0.900000E-01   1.00800           0
     14704 MEMB     111      POPC     H11Y     HAL2     0.900000E-01   1.00800           0
     14705 MEMB     111      POPC     C312     CTL2    -0.180000       12.0110           0
     14706 MEMB     111      POPC     H12X     HAL2     0.900000E-01   1.00800           0
     14707 MEMB     111      POPC     H12Y     HAL2     0.900000E-01   1.00800           0
     14708 MEMB     111      POPC     C313     CTL2    -0.180000       12.0110           0
     14709 MEMB     111      POPC     H13X     HAL2     0.900000E-01   1.00800           0
     14710 MEMB     111      POPC     H13Y     HAL2     0.900000E-01   1.00800           0
     14711 MEMB     111      POPC     C314     CTL2    -0.180000       12.0110           0
     14712 MEMB     111      POPC     H14X     HAL2     0.900000E-01   1.00800           0
     14713 MEMB     111      POPC     H14Y     HAL2     0.900000E-01   1.00800           0
     14714 MEMB     111      POPC     C315     CTL2    -0.180000       12.0110           0
     14715 MEMB     111      POPC     H15X     HAL2     0.900000E-01   1.00800           0
     14716 MEMB     111      POPC     H15Y     HAL2     0.900000E-01   1.00800           0
     14717 MEMB     111      POPC     C316     CTL3    -0.270000       12.0110           0
     14718 MEMB     111      POPC     H16X     HAL3     0.900000E-01   1.00800           0
     14719 MEMB     111      POPC     H16Y     HAL3     0.900000E-01   1.00800           0
     14720 MEMB     111      POPC     H16Z     HAL3     0.900000E-01   1.00800           0
     14721 MEMB     112      POPC     N        NTL     -0.600000       14.0070           0
     14722 MEMB     112      POPC     C12      CTL2    -0.100000       12.0110           0
     14723 MEMB     112      POPC     H12A     HL       0.250000       1.00800           0
     14724 MEMB     112      POPC     H12B     HL       0.250000       1.00800           0
     14725 MEMB     112      POPC     C13      CTL5    -0.350000       12.0110           0
     14726 MEMB     112      POPC     H13A     HL       0.250000       1.00800           0
     14727 MEMB     112      POPC     H13B     HL       0.250000       1.00800           0
     14728 MEMB     112      POPC     H13C     HL       0.250000       1.00800           0
     14729 MEMB     112      POPC     C14      CTL5    -0.350000       12.0110           0
     14730 MEMB     112      POPC     H14A     HL       0.250000       1.00800           0
     14731 MEMB     112      POPC     H14B     HL       0.250000       1.00800           0
     14732 MEMB     112      POPC     H14C     HL       0.250000       1.00800           0
     14733 MEMB     112      POPC     C15      CTL5    -0.350000       12.0110           0
     14734 MEMB     112      POPC     H15A     HL       0.250000       1.00800           0
     14735 MEMB     112      POPC     H15B     HL       0.250000       1.00800           0
     14736 MEMB     112      POPC     H15C     HL       0.250000       1.00800           0
     14737 MEMB     112      POPC     C11      CTL2    -0.800000E-01   12.0110           0
     14738 MEMB     112      POPC     H11A     HAL2     0.900000E-01   1.00800           0
     14739 MEMB     112      POPC     H11B     HAL2     0.900000E-01   1.00800           0
     14740 MEMB     112      POPC     P        PL        1.50000       30.9740           0
     14741 MEMB     112      POPC     O13      O2L     -0.780000       15.9994           0
     14742 MEMB     112      POPC     O14      O2L     -0.780000       15.9994           0
     14743 MEMB     112      POPC     O12      OSLP    -0.570000       15.9994           0
     14744 MEMB     112      POPC     O11      OSLP    -0.570000       15.9994           0
     14745 MEMB     112      POPC     C1       CTL2    -0.800000E-01   12.0110           0
     14746 MEMB     112      POPC     HA       HAL2     0.900000E-01   1.00800           0
     14747 MEMB     112      POPC     HB       HAL2     0.900000E-01   1.00800           0
     14748 MEMB     112      POPC     C2       CTL1     0.170000       12.0110           0
     14749 MEMB     112      POPC     HS       HAL1     0.900000E-01   1.00800           0
     14750 MEMB     112      POPC     O21      OSL     -0.490000       15.9994           0
     14751 MEMB     112      POPC     C21      CL       0.900000       12.0110           0
     14752 MEMB     112      POPC     O22      OBL     -0.630000       15.9994           0
     14753 MEMB     112      POPC     C22      CTL2    -0.220000       12.0110           0
     14754 MEMB     112      POPC     H2R      HAL2     0.900000E-01   1.00800           0
     14755 MEMB     112      POPC     H2S      HAL2     0.900000E-01   1.00800           0
     14756 MEMB     112      POPC     C3       CTL2     0.800000E-01   12.0110           0
     14757 MEMB     112      POPC     HX       HAL2     0.900000E-01   1.00800           0
     14758 MEMB     112      POPC     HY       HAL2     0.900000E-01   1.00800           0
     14759 MEMB     112      POPC     O31      OSL     -0.490000       15.9994           0
     14760 MEMB     112      POPC     C31      CL       0.900000       12.0110           0
     14761 MEMB     112      POPC     O32      OBL     -0.630000       15.9994           0
     14762 MEMB     112      POPC     C32      CTL2    -0.220000       12.0110           0
     14763 MEMB     112      POPC     H2X      HAL2     0.900000E-01   1.00800           0
     14764 MEMB     112      POPC     H2Y      HAL2     0.900000E-01   1.00800           0
     14765 MEMB     112      POPC     C23      CTL2    -0.180000       12.0110           0
     14766 MEMB     112      POPC     H3R      HAL2     0.900000E-01   1.00800           0
     14767 MEMB     112      POPC     H3S      HAL2     0.900000E-01   1.00800           0
     14768 MEMB     112      POPC     C24      CTL2    -0.180000       12.0110           0
     14769 MEMB     112      POPC     H4R      HAL2     0.900000E-01   1.00800           0
     14770 MEMB     112      POPC     H4S      HAL2     0.900000E-01   1.00800           0
     14771 MEMB     112      POPC     C25      CTL2    -0.180000       12.0110           0
     14772 MEMB     112      POPC     H5R      HAL2     0.900000E-01   1.00800           0
     14773 MEMB     112      POPC     H5S      HAL2     0.900000E-01   1.00800           0
     14774 MEMB     112      POPC     C26      CTL2    -0.180000       12.0110           0
     14775 MEMB     112      POPC     H6R      HAL2     0.900000E-01   1.00800           0
     14776 MEMB     112      POPC     H6S      HAL2     0.900000E-01   1.00800           0
     14777 MEMB     112      POPC     C27      CTL2    -0.180000       12.0110           0
     14778 MEMB     112      POPC     H7R      HAL2     0.900000E-01   1.00800           0
     14779 MEMB     112      POPC     H7S      HAL2     0.900000E-01   1.00800           0
     14780 MEMB     112      POPC     C28      CTL2    -0.180000       12.0110           0
     14781 MEMB     112      POPC     H8R      HAL2     0.900000E-01   1.00800           0
     14782 MEMB     112      POPC     H8S      HAL2     0.900000E-01   1.00800           0
     14783 MEMB     112      POPC     C29      CEL1    -0.150000       12.0110           0
     14784 MEMB     112      POPC     H91      HEL1     0.150000       1.00800           0
     14785 MEMB     112      POPC     C210     CEL1    -0.150000       12.0110           0
     14786 MEMB     112      POPC     H101     HEL1     0.150000       1.00800           0
     14787 MEMB     112      POPC     C211     CTL2    -0.180000       12.0110           0
     14788 MEMB     112      POPC     H11R     HAL2     0.900000E-01   1.00800           0
     14789 MEMB     112      POPC     H11S     HAL2     0.900000E-01   1.00800           0
     14790 MEMB     112      POPC     C212     CTL2    -0.180000       12.0110           0
     14791 MEMB     112      POPC     H12R     HAL2     0.900000E-01   1.00800           0
     14792 MEMB     112      POPC     H12S     HAL2     0.900000E-01   1.00800           0
     14793 MEMB     112      POPC     C213     CTL2    -0.180000       12.0110           0
     14794 MEMB     112      POPC     H13R     HAL2     0.900000E-01   1.00800           0
     14795 MEMB     112      POPC     H13S     HAL2     0.900000E-01   1.00800           0
     14796 MEMB     112      POPC     C214     CTL2    -0.180000       12.0110           0
     14797 MEMB     112      POPC     H14R     HAL2     0.900000E-01   1.00800           0
     14798 MEMB     112      POPC     H14S     HAL2     0.900000E-01   1.00800           0
     14799 MEMB     112      POPC     C215     CTL2    -0.180000       12.0110           0
     14800 MEMB     112      POPC     H15R     HAL2     0.900000E-01   1.00800           0
     14801 MEMB     112      POPC     H15S     HAL2     0.900000E-01   1.00800           0
     14802 MEMB     112      POPC     C216     CTL2    -0.180000       12.0110           0
     14803 MEMB     112      POPC     H16R     HAL2     0.900000E-01   1.00800           0
     14804 MEMB     112      POPC     H16S     HAL2     0.900000E-01   1.00800           0
     14805 MEMB     112      POPC     C217     CTL2    -0.180000       12.0110           0
     14806 MEMB     112      POPC     H17R     HAL2     0.900000E-01   1.00800           0
     14807 MEMB     112      POPC     H17S     HAL2     0.900000E-01   1.00800           0
     14808 MEMB     112      POPC     C218     CTL3    -0.270000       12.0110           0
     14809 MEMB     112      POPC     H18R     HAL3     0.900000E-01   1.00800           0
     14810 MEMB     112      POPC     H18S     HAL3     0.900000E-01   1.00800           0
     14811 MEMB     112      POPC     H18T     HAL3     0.900000E-01   1.00800           0
     14812 MEMB     112      POPC     C33      CTL2    -0.180000       12.0110           0
     14813 MEMB     112      POPC     H3X      HAL2     0.900000E-01   1.00800           0
     14814 MEMB     112      POPC     H3Y      HAL2     0.900000E-01   1.00800           0
     14815 MEMB     112      POPC     C34      CTL2    -0.180000       12.0110           0
     14816 MEMB     112      POPC     H4X      HAL2     0.900000E-01   1.00800           0
     14817 MEMB     112      POPC     H4Y      HAL2     0.900000E-01   1.00800           0
     14818 MEMB     112      POPC     C35      CTL2    -0.180000       12.0110           0
     14819 MEMB     112      POPC     H5X      HAL2     0.900000E-01   1.00800           0
     14820 MEMB     112      POPC     H5Y      HAL2     0.900000E-01   1.00800           0
     14821 MEMB     112      POPC     C36      CTL2    -0.180000       12.0110           0
     14822 MEMB     112      POPC     H6X      HAL2     0.900000E-01   1.00800           0
     14823 MEMB     112      POPC     H6Y      HAL2     0.900000E-01   1.00800           0
     14824 MEMB     112      POPC     C37      CTL2    -0.180000       12.0110           0
     14825 MEMB     112      POPC     H7X      HAL2     0.900000E-01   1.00800           0
     14826 MEMB     112      POPC     H7Y      HAL2     0.900000E-01   1.00800           0
     14827 MEMB     112      POPC     C38      CTL2    -0.180000       12.0110           0
     14828 MEMB     112      POPC     H8X      HAL2     0.900000E-01   1.00800           0
     14829 MEMB     112      POPC     H8Y      HAL2     0.900000E-01   1.00800           0
     14830 MEMB     112      POPC     C39      CTL2    -0.180000       12.0110           0
     14831 MEMB     112      POPC     H9X      HAL2     0.900000E-01   1.00800           0
     14832 MEMB     112      POPC     H9Y      HAL2     0.900000E-01   1.00800           0
     14833 MEMB     112      POPC     C310     CTL2    -0.180000       12.0110           0
     14834 MEMB     112      POPC     H10X     HAL2     0.900000E-01   1.00800           0
     14835 MEMB     112      POPC     H10Y     HAL2     0.900000E-01   1.00800           0
     14836 MEMB     112      POPC     C311     CTL2    -0.180000       12.0110           0
     14837 MEMB     112      POPC     H11X     HAL2     0.900000E-01   1.00800           0
     14838 MEMB     112      POPC     H11Y     HAL2     0.900000E-01   1.00800           0
     14839 MEMB     112      POPC     C312     CTL2    -0.180000       12.0110           0
     14840 MEMB     112      POPC     H12X     HAL2     0.900000E-01   1.00800           0
     14841 MEMB     112      POPC     H12Y     HAL2     0.900000E-01   1.00800           0
     14842 MEMB     112      POPC     C313     CTL2    -0.180000       12.0110           0
     14843 MEMB     112      POPC     H13X     HAL2     0.900000E-01   1.00800           0
     14844 MEMB     112      POPC     H13Y     HAL2     0.900000E-01   1.00800           0
     14845 MEMB     112      POPC     C314     CTL2    -0.180000       12.0110           0
     14846 MEMB     112      POPC     H14X     HAL2     0.900000E-01   1.00800           0
     14847 MEMB     112      POPC     H14Y     HAL2     0.900000E-01   1.00800           0
     14848 MEMB     112      POPC     C315     CTL2    -0.180000       12.0110           0
     14849 MEMB     112      POPC     H15X     HAL2     0.900000E-01   1.00800           0
     14850 MEMB     112      POPC     H15Y     HAL2     0.900000E-01   1.00800           0
     14851 MEMB     112      POPC     C316     CTL3    -0.270000       12.0110           0
     14852 MEMB     112      POPC     H16X     HAL3     0.900000E-01   1.00800           0
     14853 MEMB     112      POPC     H16Y     HAL3     0.900000E-01   1.00800           0
     14854 MEMB     112      POPC     H16Z     HAL3     0.900000E-01   1.00800           0
     14855 MEMB     113      POPS     N        NH3L    -0.300000       14.0070           0
     14856 MEMB     113      POPS     HN1      HCL      0.330000       1.00800           0
     14857 MEMB     113      POPS     HN2      HCL      0.330000       1.00800           0
     14858 MEMB     113      POPS     HN3      HCL      0.330000       1.00800           0
     14859 MEMB     113      POPS     C12      CTL1     0.210000       12.0110           0
     14860 MEMB     113      POPS     H12A     HBL      0.100000       1.00800           0
     14861 MEMB     113      POPS     C13      CCL      0.340000       12.0110           0
     14862 MEMB     113      POPS     O13A     OCL     -0.670000       15.9994           0
     14863 MEMB     113      POPS     O13B     OCL     -0.670000       15.9994           0
     14864 MEMB     113      POPS     C11      CTL2    -0.800000E-01   12.0110           0
     14865 MEMB     113      POPS     H11A     HAL2     0.900000E-01   1.00800           0
     14866 MEMB     113      POPS     H11B     HAL2     0.900000E-01   1.00800           0
     14867 MEMB     113      POPS     P        PL        1.50000       30.9740           0
     14868 MEMB     113      POPS     O13      O2L     -0.780000       15.9994           0
     14869 MEMB     113      POPS     O14      O2L     -0.780000       15.9994           0
     14870 MEMB     113      POPS     O12      OSLP    -0.570000       15.9994           0
     14871 MEMB     113      POPS     O11      OSLP    -0.570000       15.9994           0
     14872 MEMB     113      POPS     C1       CTL2    -0.800000E-01   12.0110           0
     14873 MEMB     113      POPS     HA       HAL2     0.900000E-01   1.00800           0
     14874 MEMB     113      POPS     HB       HAL2     0.900000E-01   1.00800           0
     14875 MEMB     113      POPS     C2       CTL1     0.170000       12.0110           0
     14876 MEMB     113      POPS     HS       HAL1     0.900000E-01   1.00800           0
     14877 MEMB     113      POPS     O21      OSL     -0.490000       15.9994           0
     14878 MEMB     113      POPS     C21      CL       0.900000       12.0110           0
     14879 MEMB     113      POPS     O22      OBL     -0.630000       15.9994           0
     14880 MEMB     113      POPS     C22      CTL2    -0.220000       12.0110           0
     14881 MEMB     113      POPS     H2R      HAL2     0.900000E-01   1.00800           0
     14882 MEMB     113      POPS     H2S      HAL2     0.900000E-01   1.00800           0
     14883 MEMB     113      POPS     C3       CTL2     0.800000E-01   12.0110           0
     14884 MEMB     113      POPS     HX       HAL2     0.900000E-01   1.00800           0
     14885 MEMB     113      POPS     HY       HAL2     0.900000E-01   1.00800           0
     14886 MEMB     113      POPS     O31      OSL     -0.490000       15.9994           0
     14887 MEMB     113      POPS     C31      CL       0.900000       12.0110           0
     14888 MEMB     113      POPS     O32      OBL     -0.630000       15.9994           0
     14889 MEMB     113      POPS     C32      CTL2    -0.220000       12.0110           0
     14890 MEMB     113      POPS     H2X      HAL2     0.900000E-01   1.00800           0
     14891 MEMB     113      POPS     H2Y      HAL2     0.900000E-01   1.00800           0
     14892 MEMB     113      POPS     C23      CTL2    -0.180000       12.0110           0
     14893 MEMB     113      POPS     H3R      HAL2     0.900000E-01   1.00800           0
     14894 MEMB     113      POPS     H3S      HAL2     0.900000E-01   1.00800           0
     14895 MEMB     113      POPS     C24      CTL2    -0.180000       12.0110           0
     14896 MEMB     113      POPS     H4R      HAL2     0.900000E-01   1.00800           0
     14897 MEMB     113      POPS     H4S      HAL2     0.900000E-01   1.00800           0
     14898 MEMB     113      POPS     C25      CTL2    -0.180000       12.0110           0
     14899 MEMB     113      POPS     H5R      HAL2     0.900000E-01   1.00800           0
     14900 MEMB     113      POPS     H5S      HAL2     0.900000E-01   1.00800           0
     14901 MEMB     113      POPS     C26      CTL2    -0.180000       12.0110           0
     14902 MEMB     113      POPS     H6R      HAL2     0.900000E-01   1.00800           0
     14903 MEMB     113      POPS     H6S      HAL2     0.900000E-01   1.00800           0
     14904 MEMB     113      POPS     C27      CTL2    -0.180000       12.0110           0
     14905 MEMB     113      POPS     H7R      HAL2     0.900000E-01   1.00800           0
     14906 MEMB     113      POPS     H7S      HAL2     0.900000E-01   1.00800           0
     14907 MEMB     113      POPS     C28      CTL2    -0.180000       12.0110           0
     14908 MEMB     113      POPS     H8R      HAL2     0.900000E-01   1.00800           0
     14909 MEMB     113      POPS     H8S      HAL2     0.900000E-01   1.00800           0
     14910 MEMB     113      POPS     C29      CEL1    -0.150000       12.0110           0
     14911 MEMB     113      POPS     H91      HEL1     0.150000       1.00800           0
     14912 MEMB     113      POPS     C210     CEL1    -0.150000       12.0110           0
     14913 MEMB     113      POPS     H101     HEL1     0.150000       1.00800           0
     14914 MEMB     113      POPS     C211     CTL2    -0.180000       12.0110           0
     14915 MEMB     113      POPS     H11R     HAL2     0.900000E-01   1.00800           0
     14916 MEMB     113      POPS     H11S     HAL2     0.900000E-01   1.00800           0
     14917 MEMB     113      POPS     C212     CTL2    -0.180000       12.0110           0
     14918 MEMB     113      POPS     H12R     HAL2     0.900000E-01   1.00800           0
     14919 MEMB     113      POPS     H12S     HAL2     0.900000E-01   1.00800           0
     14920 MEMB     113      POPS     C213     CTL2    -0.180000       12.0110           0
     14921 MEMB     113      POPS     H13R     HAL2     0.900000E-01   1.00800           0
     14922 MEMB     113      POPS     H13S     HAL2     0.900000E-01   1.00800           0
     14923 MEMB     113      POPS     C214     CTL2    -0.180000       12.0110           0
     14924 MEMB     113      POPS     H14R     HAL2     0.900000E-01   1.00800           0
     14925 MEMB     113      POPS     H14S     HAL2     0.900000E-01   1.00800           0
     14926 MEMB     113      POPS     C215     CTL2    -0.180000       12.0110           0
     14927 MEMB     113      POPS     H15R     HAL2     0.900000E-01   1.00800           0
     14928 MEMB     113      POPS     H15S     HAL2     0.900000E-01   1.00800           0
     14929 MEMB     113      POPS     C216     CTL2    -0.180000       12.0110           0
     14930 MEMB     113      POPS     H16R     HAL2     0.900000E-01   1.00800           0
     14931 MEMB     113      POPS     H16S     HAL2     0.900000E-01   1.00800           0
     14932 MEMB     113      POPS     C217     CTL2    -0.180000       12.0110           0
     14933 MEMB     113      POPS     H17R     HAL2     0.900000E-01   1.00800           0
     14934 MEMB     113      POPS     H17S     HAL2     0.900000E-01   1.00800           0
     14935 MEMB     113      POPS     C218     CTL3    -0.270000       12.0110           0
     14936 MEMB     113      POPS     H18R     HAL3     0.900000E-01   1.00800           0
     14937 MEMB     113      POPS     H18S     HAL3     0.900000E-01   1.00800           0
     14938 MEMB     113      POPS     H18T     HAL3     0.900000E-01   1.00800           0
     14939 MEMB     113      POPS     C33      CTL2    -0.180000       12.0110           0
     14940 MEMB     113      POPS     H3X      HAL2     0.900000E-01   1.00800           0
     14941 MEMB     113      POPS     H3Y      HAL2     0.900000E-01   1.00800           0
     14942 MEMB     113      POPS     C34      CTL2    -0.180000       12.0110           0
     14943 MEMB     113      POPS     H4X      HAL2     0.900000E-01   1.00800           0
     14944 MEMB     113      POPS     H4Y      HAL2     0.900000E-01   1.00800           0
     14945 MEMB     113      POPS     C35      CTL2    -0.180000       12.0110           0
     14946 MEMB     113      POPS     H5X      HAL2     0.900000E-01   1.00800           0
     14947 MEMB     113      POPS     H5Y      HAL2     0.900000E-01   1.00800           0
     14948 MEMB     113      POPS     C36      CTL2    -0.180000       12.0110           0
     14949 MEMB     113      POPS     H6X      HAL2     0.900000E-01   1.00800           0
     14950 MEMB     113      POPS     H6Y      HAL2     0.900000E-01   1.00800           0
     14951 MEMB     113      POPS     C37      CTL2    -0.180000       12.0110           0
     14952 MEMB     113      POPS     H7X      HAL2     0.900000E-01   1.00800           0
     14953 MEMB     113      POPS     H7Y      HAL2     0.900000E-01   1.00800           0
     14954 MEMB     113      POPS     C38      CTL2    -0.180000       12.0110           0
     14955 MEMB     113      POPS     H8X      HAL2     0.900000E-01   1.00800           0
     14956 MEMB     113      POPS     H8Y      HAL2     0.900000E-01   1.00800           0
     14957 MEMB     113      POPS     C39      CTL2    -0.180000       12.0110           0
     14958 MEMB     113      POPS     H9X      HAL2     0.900000E-01   1.00800           0
     14959 MEMB     113      POPS     H9Y      HAL2     0.900000E-01   1.00800           0
     14960 MEMB     113      POPS     C310     CTL2    -0.180000       12.0110           0
     14961 MEMB     113      POPS     H10X     HAL2     0.900000E-01   1.00800           0
     14962 MEMB     113      POPS     H10Y     HAL2     0.900000E-01   1.00800           0
     14963 MEMB     113      POPS     C311     CTL2    -0.180000       12.0110           0
     14964 MEMB     113      POPS     H11X     HAL2     0.900000E-01   1.00800           0
     14965 MEMB     113      POPS     H11Y     HAL2     0.900000E-01   1.00800           0
     14966 MEMB     113      POPS     C312     CTL2    -0.180000       12.0110           0
     14967 MEMB     113      POPS     H12X     HAL2     0.900000E-01   1.00800           0
     14968 MEMB     113      POPS     H12Y     HAL2     0.900000E-01   1.00800           0
     14969 MEMB     113      POPS     C313     CTL2    -0.180000       12.0110           0
     14970 MEMB     113      POPS     H13X     HAL2     0.900000E-01   1.00800           0
     14971 MEMB     113      POPS     H13Y     HAL2     0.900000E-01   1.00800           0
     14972 MEMB     113      POPS     C314     CTL2    -0.180000       12.0110           0
     14973 MEMB     113      POPS     H14X     HAL2     0.900000E-01   1.00800           0
     14974 MEMB     113      POPS     H14Y     HAL2     0.900000E-01   1.00800           0
     14975 MEMB     113      POPS     C315     CTL2    -0.180000       12.0110           0
     14976 MEMB     113      POPS     H15X     HAL2     0.900000E-01   1.00800           0
     14977 MEMB     113      POPS     H15Y     HAL2     0.900000E-01   1.00800           0
     14978 MEMB     113      POPS     C316     CTL3    -0.270000       12.0110           0
     14979 MEMB     113      POPS     H16X     HAL3     0.900000E-01   1.00800           0
     14980 MEMB     113      POPS     H16Y     HAL3     0.900000E-01   1.00800           0
     14981 MEMB     113      POPS     H16Z     HAL3     0.900000E-01   1.00800           0
     14982 MEMB     114      POPC     N        NTL     -0.600000       14.0070           0
     14983 MEMB     114      POPC     C12      CTL2    -0.100000       12.0110           0
     14984 MEMB     114      POPC     H12A     HL       0.250000       1.00800           0
     14985 MEMB     114      POPC     H12B     HL       0.250000       1.00800           0
     14986 MEMB     114      POPC     C13      CTL5    -0.350000       12.0110           0
     14987 MEMB     114      POPC     H13A     HL       0.250000       1.00800           0
     14988 MEMB     114      POPC     H13B     HL       0.250000       1.00800           0
     14989 MEMB     114      POPC     H13C     HL       0.250000       1.00800           0
     14990 MEMB     114      POPC     C14      CTL5    -0.350000       12.0110           0
     14991 MEMB     114      POPC     H14A     HL       0.250000       1.00800           0
     14992 MEMB     114      POPC     H14B     HL       0.250000       1.00800           0
     14993 MEMB     114      POPC     H14C     HL       0.250000       1.00800           0
     14994 MEMB     114      POPC     C15      CTL5    -0.350000       12.0110           0
     14995 MEMB     114      POPC     H15A     HL       0.250000       1.00800           0
     14996 MEMB     114      POPC     H15B     HL       0.250000       1.00800           0
     14997 MEMB     114      POPC     H15C     HL       0.250000       1.00800           0
     14998 MEMB     114      POPC     C11      CTL2    -0.800000E-01   12.0110           0
     14999 MEMB     114      POPC     H11A     HAL2     0.900000E-01   1.00800           0
     15000 MEMB     114      POPC     H11B     HAL2     0.900000E-01   1.00800           0
     15001 MEMB     114      POPC     P        PL        1.50000       30.9740           0
     15002 MEMB     114      POPC     O13      O2L     -0.780000       15.9994           0
     15003 MEMB     114      POPC     O14      O2L     -0.780000       15.9994           0
     15004 MEMB     114      POPC     O12      OSLP    -0.570000       15.9994           0
     15005 MEMB     114      POPC     O11      OSLP    -0.570000       15.9994           0
     15006 MEMB     114      POPC     C1       CTL2    -0.800000E-01   12.0110           0
     15007 MEMB     114      POPC     HA       HAL2     0.900000E-01   1.00800           0
     15008 MEMB     114      POPC     HB       HAL2     0.900000E-01   1.00800           0
     15009 MEMB     114      POPC     C2       CTL1     0.170000       12.0110           0
     15010 MEMB     114      POPC     HS       HAL1     0.900000E-01   1.00800           0
     15011 MEMB     114      POPC     O21      OSL     -0.490000       15.9994           0
     15012 MEMB     114      POPC     C21      CL       0.900000       12.0110           0
     15013 MEMB     114      POPC     O22      OBL     -0.630000       15.9994           0
     15014 MEMB     114      POPC     C22      CTL2    -0.220000       12.0110           0
     15015 MEMB     114      POPC     H2R      HAL2     0.900000E-01   1.00800           0
     15016 MEMB     114      POPC     H2S      HAL2     0.900000E-01   1.00800           0
     15017 MEMB     114      POPC     C3       CTL2     0.800000E-01   12.0110           0
     15018 MEMB     114      POPC     HX       HAL2     0.900000E-01   1.00800           0
     15019 MEMB     114      POPC     HY       HAL2     0.900000E-01   1.00800           0
     15020 MEMB     114      POPC     O31      OSL     -0.490000       15.9994           0
     15021 MEMB     114      POPC     C31      CL       0.900000       12.0110           0
     15022 MEMB     114      POPC     O32      OBL     -0.630000       15.9994           0
     15023 MEMB     114      POPC     C32      CTL2    -0.220000       12.0110           0
     15024 MEMB     114      POPC     H2X      HAL2     0.900000E-01   1.00800           0
     15025 MEMB     114      POPC     H2Y      HAL2     0.900000E-01   1.00800           0
     15026 MEMB     114      POPC     C23      CTL2    -0.180000       12.0110           0
     15027 MEMB     114      POPC     H3R      HAL2     0.900000E-01   1.00800           0
     15028 MEMB     114      POPC     H3S      HAL2     0.900000E-01   1.00800           0
     15029 MEMB     114      POPC     C24      CTL2    -0.180000       12.0110           0
     15030 MEMB     114      POPC     H4R      HAL2     0.900000E-01   1.00800           0
     15031 MEMB     114      POPC     H4S      HAL2     0.900000E-01   1.00800           0
     15032 MEMB     114      POPC     C25      CTL2    -0.180000       12.0110           0
     15033 MEMB     114      POPC     H5R      HAL2     0.900000E-01   1.00800           0
     15034 MEMB     114      POPC     H5S      HAL2     0.900000E-01   1.00800           0
     15035 MEMB     114      POPC     C26      CTL2    -0.180000       12.0110           0
     15036 MEMB     114      POPC     H6R      HAL2     0.900000E-01   1.00800           0
     15037 MEMB     114      POPC     H6S      HAL2     0.900000E-01   1.00800           0
     15038 MEMB     114      POPC     C27      CTL2    -0.180000       12.0110           0
     15039 MEMB     114      POPC     H7R      HAL2     0.900000E-01   1.00800           0
     15040 MEMB     114      POPC     H7S      HAL2     0.900000E-01   1.00800           0
     15041 MEMB     114      POPC     C28      CTL2    -0.180000       12.0110           0
     15042 MEMB     114      POPC     H8R      HAL2     0.900000E-01   1.00800           0
     15043 MEMB     114      POPC     H8S      HAL2     0.900000E-01   1.00800           0
     15044 MEMB     114      POPC     C29      CEL1    -0.150000       12.0110           0
     15045 MEMB     114      POPC     H91      HEL1     0.150000       1.00800           0
     15046 MEMB     114      POPC     C210     CEL1    -0.150000       12.0110           0
     15047 MEMB     114      POPC     H101     HEL1     0.150000       1.00800           0
     15048 MEMB     114      POPC     C211     CTL2    -0.180000       12.0110           0
     15049 MEMB     114      POPC     H11R     HAL2     0.900000E-01   1.00800           0
     15050 MEMB     114      POPC     H11S     HAL2     0.900000E-01   1.00800           0
     15051 MEMB     114      POPC     C212     CTL2    -0.180000       12.0110           0
     15052 MEMB     114      POPC     H12R     HAL2     0.900000E-01   1.00800           0
     15053 MEMB     114      POPC     H12S     HAL2     0.900000E-01   1.00800           0
     15054 MEMB     114      POPC     C213     CTL2    -0.180000       12.0110           0
     15055 MEMB     114      POPC     H13R     HAL2     0.900000E-01   1.00800           0
     15056 MEMB     114      POPC     H13S     HAL2     0.900000E-01   1.00800           0
     15057 MEMB     114      POPC     C214     CTL2    -0.180000       12.0110           0
     15058 MEMB     114      POPC     H14R     HAL2     0.900000E-01   1.00800           0
     15059 MEMB     114      POPC     H14S     HAL2     0.900000E-01   1.00800           0
     15060 MEMB     114      POPC     C215     CTL2    -0.180000       12.0110           0
     15061 MEMB     114      POPC     H15R     HAL2     0.900000E-01   1.00800           0
     15062 MEMB     114      POPC     H15S     HAL2     0.900000E-01   1.00800           0
     15063 MEMB     114      POPC     C216     CTL2    -0.180000       12.0110           0
     15064 MEMB     114      POPC     H16R     HAL2     0.900000E-01   1.00800           0
     15065 MEMB     114      POPC     H16S     HAL2     0.900000E-01   1.00800           0
     15066 MEMB     114      POPC     C217     CTL2    -0.180000       12.0110           0
     15067 MEMB     114      POPC     H17R     HAL2     0.900000E-01   1.00800           0
     15068 MEMB     114      POPC     H17S     HAL2     0.900000E-01   1.00800           0
     15069 MEMB     114      POPC     C218     CTL3    -0.270000       12.0110           0
     15070 MEMB     114      POPC     H18R     HAL3     0.900000E-01   1.00800           0
     15071 MEMB     114      POPC     H18S     HAL3     0.900000E-01   1.00800           0
     15072 MEMB     114      POPC     H18T     HAL3     0.900000E-01   1.00800           0
     15073 MEMB     114      POPC     C33      CTL2    -0.180000       12.0110           0
     15074 MEMB     114      POPC     H3X      HAL2     0.900000E-01   1.00800           0
     15075 MEMB     114      POPC     H3Y      HAL2     0.900000E-01   1.00800           0
     15076 MEMB     114      POPC     C34      CTL2    -0.180000       12.0110           0
     15077 MEMB     114      POPC     H4X      HAL2     0.900000E-01   1.00800           0
     15078 MEMB     114      POPC     H4Y      HAL2     0.900000E-01   1.00800           0
     15079 MEMB     114      POPC     C35      CTL2    -0.180000       12.0110           0
     15080 MEMB     114      POPC     H5X      HAL2     0.900000E-01   1.00800           0
     15081 MEMB     114      POPC     H5Y      HAL2     0.900000E-01   1.00800           0
     15082 MEMB     114      POPC     C36      CTL2    -0.180000       12.0110           0
     15083 MEMB     114      POPC     H6X      HAL2     0.900000E-01   1.00800           0
     15084 MEMB     114      POPC     H6Y      HAL2     0.900000E-01   1.00800           0
     15085 MEMB     114      POPC     C37      CTL2    -0.180000       12.0110           0
     15086 MEMB     114      POPC     H7X      HAL2     0.900000E-01   1.00800           0
     15087 MEMB     114      POPC     H7Y      HAL2     0.900000E-01   1.00800           0
     15088 MEMB     114      POPC     C38      CTL2    -0.180000       12.0110           0
     15089 MEMB     114      POPC     H8X      HAL2     0.900000E-01   1.00800           0
     15090 MEMB     114      POPC     H8Y      HAL2     0.900000E-01   1.00800           0
     15091 MEMB     114      POPC     C39      CTL2    -0.180000       12.0110           0
     15092 MEMB     114      POPC     H9X      HAL2     0.900000E-01   1.00800           0
     15093 MEMB     114      POPC     H9Y      HAL2     0.900000E-01   1.00800           0
     15094 MEMB     114      POPC     C310     CTL2    -0.180000       12.0110           0
     15095 MEMB     114      POPC     H10X     HAL2     0.900000E-01   1.00800           0
     15096 MEMB     114      POPC     H10Y     HAL2     0.900000E-01   1.00800           0
     15097 MEMB     114      POPC     C311     CTL2    -0.180000       12.0110           0
     15098 MEMB     114      POPC     H11X     HAL2     0.900000E-01   1.00800           0
     15099 MEMB     114      POPC     H11Y     HAL2     0.900000E-01   1.00800           0
     15100 MEMB     114      POPC     C312     CTL2    -0.180000       12.0110           0
     15101 MEMB     114      POPC     H12X     HAL2     0.900000E-01   1.00800           0
     15102 MEMB     114      POPC     H12Y     HAL2     0.900000E-01   1.00800           0
     15103 MEMB     114      POPC     C313     CTL2    -0.180000       12.0110           0
     15104 MEMB     114      POPC     H13X     HAL2     0.900000E-01   1.00800           0
     15105 MEMB     114      POPC     H13Y     HAL2     0.900000E-01   1.00800           0
     15106 MEMB     114      POPC     C314     CTL2    -0.180000       12.0110           0
     15107 MEMB     114      POPC     H14X     HAL2     0.900000E-01   1.00800           0
     15108 MEMB     114      POPC     H14Y     HAL2     0.900000E-01   1.00800           0
     15109 MEMB     114      POPC     C315     CTL2    -0.180000       12.0110           0
     15110 MEMB     114      POPC     H15X     HAL2     0.900000E-01   1.00800           0
     15111 MEMB     114      POPC     H15Y     HAL2     0.900000E-01   1.00800           0
     15112 MEMB     114      POPC     C316     CTL3    -0.270000       12.0110           0
     15113 MEMB     114      POPC     H16X     HAL3     0.900000E-01   1.00800           0
     15114 MEMB     114      POPC     H16Y     HAL3     0.900000E-01   1.00800           0
     15115 MEMB     114      POPC     H16Z     HAL3     0.900000E-01   1.00800           0
     15116 MEMB     115      POPC     N        NTL     -0.600000       14.0070           0
     15117 MEMB     115      POPC     C12      CTL2    -0.100000       12.0110           0
     15118 MEMB     115      POPC     H12A     HL       0.250000       1.00800           0
     15119 MEMB     115      POPC     H12B     HL       0.250000       1.00800           0
     15120 MEMB     115      POPC     C13      CTL5    -0.350000       12.0110           0
     15121 MEMB     115      POPC     H13A     HL       0.250000       1.00800           0
     15122 MEMB     115      POPC     H13B     HL       0.250000       1.00800           0
     15123 MEMB     115      POPC     H13C     HL       0.250000       1.00800           0
     15124 MEMB     115      POPC     C14      CTL5    -0.350000       12.0110           0
     15125 MEMB     115      POPC     H14A     HL       0.250000       1.00800           0
     15126 MEMB     115      POPC     H14B     HL       0.250000       1.00800           0
     15127 MEMB     115      POPC     H14C     HL       0.250000       1.00800           0
     15128 MEMB     115      POPC     C15      CTL5    -0.350000       12.0110           0
     15129 MEMB     115      POPC     H15A     HL       0.250000       1.00800           0
     15130 MEMB     115      POPC     H15B     HL       0.250000       1.00800           0
     15131 MEMB     115      POPC     H15C     HL       0.250000       1.00800           0
     15132 MEMB     115      POPC     C11      CTL2    -0.800000E-01   12.0110           0
     15133 MEMB     115      POPC     H11A     HAL2     0.900000E-01   1.00800           0
     15134 MEMB     115      POPC     H11B     HAL2     0.900000E-01   1.00800           0
     15135 MEMB     115      POPC     P        PL        1.50000       30.9740           0
     15136 MEMB     115      POPC     O13      O2L     -0.780000       15.9994           0
     15137 MEMB     115      POPC     O14      O2L     -0.780000       15.9994           0
     15138 MEMB     115      POPC     O12      OSLP    -0.570000       15.9994           0
     15139 MEMB     115      POPC     O11      OSLP    -0.570000       15.9994           0
     15140 MEMB     115      POPC     C1       CTL2    -0.800000E-01   12.0110           0
     15141 MEMB     115      POPC     HA       HAL2     0.900000E-01   1.00800           0
     15142 MEMB     115      POPC     HB       HAL2     0.900000E-01   1.00800           0
     15143 MEMB     115      POPC     C2       CTL1     0.170000       12.0110           0
     15144 MEMB     115      POPC     HS       HAL1     0.900000E-01   1.00800           0
     15145 MEMB     115      POPC     O21      OSL     -0.490000       15.9994           0
     15146 MEMB     115      POPC     C21      CL       0.900000       12.0110           0
     15147 MEMB     115      POPC     O22      OBL     -0.630000       15.9994           0
     15148 MEMB     115      POPC     C22      CTL2    -0.220000       12.0110           0
     15149 MEMB     115      POPC     H2R      HAL2     0.900000E-01   1.00800           0
     15150 MEMB     115      POPC     H2S      HAL2     0.900000E-01   1.00800           0
     15151 MEMB     115      POPC     C3       CTL2     0.800000E-01   12.0110           0
     15152 MEMB     115      POPC     HX       HAL2     0.900000E-01   1.00800           0
     15153 MEMB     115      POPC     HY       HAL2     0.900000E-01   1.00800           0
     15154 MEMB     115      POPC     O31      OSL     -0.490000       15.9994           0
     15155 MEMB     115      POPC     C31      CL       0.900000       12.0110           0
     15156 MEMB     115      POPC     O32      OBL     -0.630000       15.9994           0
     15157 MEMB     115      POPC     C32      CTL2    -0.220000       12.0110           0
     15158 MEMB     115      POPC     H2X      HAL2     0.900000E-01   1.00800           0
     15159 MEMB     115      POPC     H2Y      HAL2     0.900000E-01   1.00800           0
     15160 MEMB     115      POPC     C23      CTL2    -0.180000       12.0110           0
     15161 MEMB     115      POPC     H3R      HAL2     0.900000E-01   1.00800           0
     15162 MEMB     115      POPC     H3S      HAL2     0.900000E-01   1.00800           0
     15163 MEMB     115      POPC     C24      CTL2    -0.180000       12.0110           0
     15164 MEMB     115      POPC     H4R      HAL2     0.900000E-01   1.00800           0
     15165 MEMB     115      POPC     H4S      HAL2     0.900000E-01   1.00800           0
     15166 MEMB     115      POPC     C25      CTL2    -0.180000       12.0110           0
     15167 MEMB     115      POPC     H5R      HAL2     0.900000E-01   1.00800           0
     15168 MEMB     115      POPC     H5S      HAL2     0.900000E-01   1.00800           0
     15169 MEMB     115      POPC     C26      CTL2    -0.180000       12.0110           0
     15170 MEMB     115      POPC     H6R      HAL2     0.900000E-01   1.00800           0
     15171 MEMB     115      POPC     H6S      HAL2     0.900000E-01   1.00800           0
     15172 MEMB     115      POPC     C27      CTL2    -0.180000       12.0110           0
     15173 MEMB     115      POPC     H7R      HAL2     0.900000E-01   1.00800           0
     15174 MEMB     115      POPC     H7S      HAL2     0.900000E-01   1.00800           0
     15175 MEMB     115      POPC     C28      CTL2    -0.180000       12.0110           0
     15176 MEMB     115      POPC     H8R      HAL2     0.900000E-01   1.00800           0
     15177 MEMB     115      POPC     H8S      HAL2     0.900000E-01   1.00800           0
     15178 MEMB     115      POPC     C29      CEL1    -0.150000       12.0110           0
     15179 MEMB     115      POPC     H91      HEL1     0.150000       1.00800           0
     15180 MEMB     115      POPC     C210     CEL1    -0.150000       12.0110           0
     15181 MEMB     115      POPC     H101     HEL1     0.150000       1.00800           0
     15182 MEMB     115      POPC     C211     CTL2    -0.180000       12.0110           0
     15183 MEMB     115      POPC     H11R     HAL2     0.900000E-01   1.00800           0
     15184 MEMB     115      POPC     H11S     HAL2     0.900000E-01   1.00800           0
     15185 MEMB     115      POPC     C212     CTL2    -0.180000       12.0110           0
     15186 MEMB     115      POPC     H12R     HAL2     0.900000E-01   1.00800           0
     15187 MEMB     115      POPC     H12S     HAL2     0.900000E-01   1.00800           0
     15188 MEMB     115      POPC     C213     CTL2    -0.180000       12.0110           0
     15189 MEMB     115      POPC     H13R     HAL2     0.900000E-01   1.00800           0
     15190 MEMB     115      POPC     H13S     HAL2     0.900000E-01   1.00800           0
     15191 MEMB     115      POPC     C214     CTL2    -0.180000       12.0110           0
     15192 MEMB     115      POPC     H14R     HAL2     0.900000E-01   1.00800           0
     15193 MEMB     115      POPC     H14S     HAL2     0.900000E-01   1.00800           0
     15194 MEMB     115      POPC     C215     CTL2    -0.180000       12.0110           0
     15195 MEMB     115      POPC     H15R     HAL2     0.900000E-01   1.00800           0
     15196 MEMB     115      POPC     H15S     HAL2     0.900000E-01   1.00800           0
     15197 MEMB     115      POPC     C216     CTL2    -0.180000       12.0110           0
     15198 MEMB     115      POPC     H16R     HAL2     0.900000E-01   1.00800           0
     15199 MEMB     115      POPC     H16S     HAL2     0.900000E-01   1.00800           0
     15200 MEMB     115      POPC     C217     CTL2    -0.180000       12.0110           0
     15201 MEMB     115      POPC     H17R     HAL2     0.900000E-01   1.00800           0
     15202 MEMB     115      POPC     H17S     HAL2     0.900000E-01   1.00800           0
     15203 MEMB     115      POPC     C218     CTL3    -0.270000       12.0110           0
     15204 MEMB     115      POPC     H18R     HAL3     0.900000E-01   1.00800           0
     15205 MEMB     115      POPC     H18S     HAL3     0.900000E-01   1.00800           0
     15206 MEMB     115      POPC     H18T     HAL3     0.900000E-01   1.00800           0
     15207 MEMB     115      POPC     C33      CTL2    -0.180000       12.0110           0
     15208 MEMB     115      POPC     H3X      HAL2     0.900000E-01   1.00800           0
     15209 MEMB     115      POPC     H3Y      HAL2     0.900000E-01   1.00800           0
     15210 MEMB     115      POPC     C34      CTL2    -0.180000       12.0110           0
     15211 MEMB     115      POPC     H4X      HAL2     0.900000E-01   1.00800           0
     15212 MEMB     115      POPC     H4Y      HAL2     0.900000E-01   1.00800           0
     15213 MEMB     115      POPC     C35      CTL2    -0.180000       12.0110           0
     15214 MEMB     115      POPC     H5X      HAL2     0.900000E-01   1.00800           0
     15215 MEMB     115      POPC     H5Y      HAL2     0.900000E-01   1.00800           0
     15216 MEMB     115      POPC     C36      CTL2    -0.180000       12.0110           0
     15217 MEMB     115      POPC     H6X      HAL2     0.900000E-01   1.00800           0
     15218 MEMB     115      POPC     H6Y      HAL2     0.900000E-01   1.00800           0
     15219 MEMB     115      POPC     C37      CTL2    -0.180000       12.0110           0
     15220 MEMB     115      POPC     H7X      HAL2     0.900000E-01   1.00800           0
     15221 MEMB     115      POPC     H7Y      HAL2     0.900000E-01   1.00800           0
     15222 MEMB     115      POPC     C38      CTL2    -0.180000       12.0110           0
     15223 MEMB     115      POPC     H8X      HAL2     0.900000E-01   1.00800           0
     15224 MEMB     115      POPC     H8Y      HAL2     0.900000E-01   1.00800           0
     15225 MEMB     115      POPC     C39      CTL2    -0.180000       12.0110           0
     15226 MEMB     115      POPC     H9X      HAL2     0.900000E-01   1.00800           0
     15227 MEMB     115      POPC     H9Y      HAL2     0.900000E-01   1.00800           0
     15228 MEMB     115      POPC     C310     CTL2    -0.180000       12.0110           0
     15229 MEMB     115      POPC     H10X     HAL2     0.900000E-01   1.00800           0
     15230 MEMB     115      POPC     H10Y     HAL2     0.900000E-01   1.00800           0
     15231 MEMB     115      POPC     C311     CTL2    -0.180000       12.0110           0
     15232 MEMB     115      POPC     H11X     HAL2     0.900000E-01   1.00800           0
     15233 MEMB     115      POPC     H11Y     HAL2     0.900000E-01   1.00800           0
     15234 MEMB     115      POPC     C312     CTL2    -0.180000       12.0110           0
     15235 MEMB     115      POPC     H12X     HAL2     0.900000E-01   1.00800           0
     15236 MEMB     115      POPC     H12Y     HAL2     0.900000E-01   1.00800           0
     15237 MEMB     115      POPC     C313     CTL2    -0.180000       12.0110           0
     15238 MEMB     115      POPC     H13X     HAL2     0.900000E-01   1.00800           0
     15239 MEMB     115      POPC     H13Y     HAL2     0.900000E-01   1.00800           0
     15240 MEMB     115      POPC     C314     CTL2    -0.180000       12.0110           0
     15241 MEMB     115      POPC     H14X     HAL2     0.900000E-01   1.00800           0
     15242 MEMB     115      POPC     H14Y     HAL2     0.900000E-01   1.00800           0
     15243 MEMB     115      POPC     C315     CTL2    -0.180000       12.0110           0
     15244 MEMB     115      POPC     H15X     HAL2     0.900000E-01   1.00800           0
     15245 MEMB     115      POPC     H15Y     HAL2     0.900000E-01   1.00800           0
     15246 MEMB     115      POPC     C316     CTL3    -0.270000       12.0110           0
     15247 MEMB     115      POPC     H16X     HAL3     0.900000E-01   1.00800           0
     15248 MEMB     115      POPC     H16Y     HAL3     0.900000E-01   1.00800           0
     15249 MEMB     115      POPC     H16Z     HAL3     0.900000E-01   1.00800           0
     15250 MEMB     116      POPC     N        NTL     -0.600000       14.0070           0
     15251 MEMB     116      POPC     C12      CTL2    -0.100000       12.0110           0
     15252 MEMB     116      POPC     H12A     HL       0.250000       1.00800           0
     15253 MEMB     116      POPC     H12B     HL       0.250000       1.00800           0
     15254 MEMB     116      POPC     C13      CTL5    -0.350000       12.0110           0
     15255 MEMB     116      POPC     H13A     HL       0.250000       1.00800           0
     15256 MEMB     116      POPC     H13B     HL       0.250000       1.00800           0
     15257 MEMB     116      POPC     H13C     HL       0.250000       1.00800           0
     15258 MEMB     116      POPC     C14      CTL5    -0.350000       12.0110           0
     15259 MEMB     116      POPC     H14A     HL       0.250000       1.00800           0
     15260 MEMB     116      POPC     H14B     HL       0.250000       1.00800           0
     15261 MEMB     116      POPC     H14C     HL       0.250000       1.00800           0
     15262 MEMB     116      POPC     C15      CTL5    -0.350000       12.0110           0
     15263 MEMB     116      POPC     H15A     HL       0.250000       1.00800           0
     15264 MEMB     116      POPC     H15B     HL       0.250000       1.00800           0
     15265 MEMB     116      POPC     H15C     HL       0.250000       1.00800           0
     15266 MEMB     116      POPC     C11      CTL2    -0.800000E-01   12.0110           0
     15267 MEMB     116      POPC     H11A     HAL2     0.900000E-01   1.00800           0
     15268 MEMB     116      POPC     H11B     HAL2     0.900000E-01   1.00800           0
     15269 MEMB     116      POPC     P        PL        1.50000       30.9740           0
     15270 MEMB     116      POPC     O13      O2L     -0.780000       15.9994           0
     15271 MEMB     116      POPC     O14      O2L     -0.780000       15.9994           0
     15272 MEMB     116      POPC     O12      OSLP    -0.570000       15.9994           0
     15273 MEMB     116      POPC     O11      OSLP    -0.570000       15.9994           0
     15274 MEMB     116      POPC     C1       CTL2    -0.800000E-01   12.0110           0
     15275 MEMB     116      POPC     HA       HAL2     0.900000E-01   1.00800           0
     15276 MEMB     116      POPC     HB       HAL2     0.900000E-01   1.00800           0
     15277 MEMB     116      POPC     C2       CTL1     0.170000       12.0110           0
     15278 MEMB     116      POPC     HS       HAL1     0.900000E-01   1.00800           0
     15279 MEMB     116      POPC     O21      OSL     -0.490000       15.9994           0
     15280 MEMB     116      POPC     C21      CL       0.900000       12.0110           0
     15281 MEMB     116      POPC     O22      OBL     -0.630000       15.9994           0
     15282 MEMB     116      POPC     C22      CTL2    -0.220000       12.0110           0
     15283 MEMB     116      POPC     H2R      HAL2     0.900000E-01   1.00800           0
     15284 MEMB     116      POPC     H2S      HAL2     0.900000E-01   1.00800           0
     15285 MEMB     116      POPC     C3       CTL2     0.800000E-01   12.0110           0
     15286 MEMB     116      POPC     HX       HAL2     0.900000E-01   1.00800           0
     15287 MEMB     116      POPC     HY       HAL2     0.900000E-01   1.00800           0
     15288 MEMB     116      POPC     O31      OSL     -0.490000       15.9994           0
     15289 MEMB     116      POPC     C31      CL       0.900000       12.0110           0
     15290 MEMB     116      POPC     O32      OBL     -0.630000       15.9994           0
     15291 MEMB     116      POPC     C32      CTL2    -0.220000       12.0110           0
     15292 MEMB     116      POPC     H2X      HAL2     0.900000E-01   1.00800           0
     15293 MEMB     116      POPC     H2Y      HAL2     0.900000E-01   1.00800           0
     15294 MEMB     116      POPC     C23      CTL2    -0.180000       12.0110           0
     15295 MEMB     116      POPC     H3R      HAL2     0.900000E-01   1.00800           0
     15296 MEMB     116      POPC     H3S      HAL2     0.900000E-01   1.00800           0
     15297 MEMB     116      POPC     C24      CTL2    -0.180000       12.0110           0
     15298 MEMB     116      POPC     H4R      HAL2     0.900000E-01   1.00800           0
     15299 MEMB     116      POPC     H4S      HAL2     0.900000E-01   1.00800           0
     15300 MEMB     116      POPC     C25      CTL2    -0.180000       12.0110           0
     15301 MEMB     116      POPC     H5R      HAL2     0.900000E-01   1.00800           0
     15302 MEMB     116      POPC     H5S      HAL2     0.900000E-01   1.00800           0
     15303 MEMB     116      POPC     C26      CTL2    -0.180000       12.0110           0
     15304 MEMB     116      POPC     H6R      HAL2     0.900000E-01   1.00800           0
     15305 MEMB     116      POPC     H6S      HAL2     0.900000E-01   1.00800           0
     15306 MEMB     116      POPC     C27      CTL2    -0.180000       12.0110           0
     15307 MEMB     116      POPC     H7R      HAL2     0.900000E-01   1.00800           0
     15308 MEMB     116      POPC     H7S      HAL2     0.900000E-01   1.00800           0
     15309 MEMB     116      POPC     C28      CTL2    -0.180000       12.0110           0
     15310 MEMB     116      POPC     H8R      HAL2     0.900000E-01   1.00800           0
     15311 MEMB     116      POPC     H8S      HAL2     0.900000E-01   1.00800           0
     15312 MEMB     116      POPC     C29      CEL1    -0.150000       12.0110           0
     15313 MEMB     116      POPC     H91      HEL1     0.150000       1.00800           0
     15314 MEMB     116      POPC     C210     CEL1    -0.150000       12.0110           0
     15315 MEMB     116      POPC     H101     HEL1     0.150000       1.00800           0
     15316 MEMB     116      POPC     C211     CTL2    -0.180000       12.0110           0
     15317 MEMB     116      POPC     H11R     HAL2     0.900000E-01   1.00800           0
     15318 MEMB     116      POPC     H11S     HAL2     0.900000E-01   1.00800           0
     15319 MEMB     116      POPC     C212     CTL2    -0.180000       12.0110           0
     15320 MEMB     116      POPC     H12R     HAL2     0.900000E-01   1.00800           0
     15321 MEMB     116      POPC     H12S     HAL2     0.900000E-01   1.00800           0
     15322 MEMB     116      POPC     C213     CTL2    -0.180000       12.0110           0
     15323 MEMB     116      POPC     H13R     HAL2     0.900000E-01   1.00800           0
     15324 MEMB     116      POPC     H13S     HAL2     0.900000E-01   1.00800           0
     15325 MEMB     116      POPC     C214     CTL2    -0.180000       12.0110           0
     15326 MEMB     116      POPC     H14R     HAL2     0.900000E-01   1.00800           0
     15327 MEMB     116      POPC     H14S     HAL2     0.900000E-01   1.00800           0
     15328 MEMB     116      POPC     C215     CTL2    -0.180000       12.0110           0
     15329 MEMB     116      POPC     H15R     HAL2     0.900000E-01   1.00800           0
     15330 MEMB     116      POPC     H15S     HAL2     0.900000E-01   1.00800           0
     15331 MEMB     116      POPC     C216     CTL2    -0.180000       12.0110           0
     15332 MEMB     116      POPC     H16R     HAL2     0.900000E-01   1.00800           0
     15333 MEMB     116      POPC     H16S     HAL2     0.900000E-01   1.00800           0
     15334 MEMB     116      POPC     C217     CTL2    -0.180000       12.0110           0
     15335 MEMB     116      POPC     H17R     HAL2     0.900000E-01   1.00800           0
     15336 MEMB     116      POPC     H17S     HAL2     0.900000E-01   1.00800           0
     15337 MEMB     116      POPC     C218     CTL3    -0.270000       12.0110           0
     15338 MEMB     116      POPC     H18R     HAL3     0.900000E-01   1.00800           0
     15339 MEMB     116      POPC     H18S     HAL3     0.900000E-01   1.00800           0
     15340 MEMB     116      POPC     H18T     HAL3     0.900000E-01   1.00800           0
     15341 MEMB     116      POPC     C33      CTL2    -0.180000       12.0110           0
     15342 MEMB     116      POPC     H3X      HAL2     0.900000E-01   1.00800           0
     15343 MEMB     116      POPC     H3Y      HAL2     0.900000E-01   1.00800           0
     15344 MEMB     116      POPC     C34      CTL2    -0.180000       12.0110           0
     15345 MEMB     116      POPC     H4X      HAL2     0.900000E-01   1.00800           0
     15346 MEMB     116      POPC     H4Y      HAL2     0.900000E-01   1.00800           0
     15347 MEMB     116      POPC     C35      CTL2    -0.180000       12.0110           0
     15348 MEMB     116      POPC     H5X      HAL2     0.900000E-01   1.00800           0
     15349 MEMB     116      POPC     H5Y      HAL2     0.900000E-01   1.00800           0
     15350 MEMB     116      POPC     C36      CTL2    -0.180000       12.0110           0
     15351 MEMB     116      POPC     H6X      HAL2     0.900000E-01   1.00800           0
     15352 MEMB     116      POPC     H6Y      HAL2     0.900000E-01   1.00800           0
     15353 MEMB     116      POPC     C37      CTL2    -0.180000       12.0110           0
     15354 MEMB     116      POPC     H7X      HAL2     0.900000E-01   1.00800           0
     15355 MEMB     116      POPC     H7Y      HAL2     0.900000E-01   1.00800           0
     15356 MEMB     116      POPC     C38      CTL2    -0.180000       12.0110           0
     15357 MEMB     116      POPC     H8X      HAL2     0.900000E-01   1.00800           0
     15358 MEMB     116      POPC     H8Y      HAL2     0.900000E-01   1.00800           0
     15359 MEMB     116      POPC     C39      CTL2    -0.180000       12.0110           0
     15360 MEMB     116      POPC     H9X      HAL2     0.900000E-01   1.00800           0
     15361 MEMB     116      POPC     H9Y      HAL2     0.900000E-01   1.00800           0
     15362 MEMB     116      POPC     C310     CTL2    -0.180000       12.0110           0
     15363 MEMB     116      POPC     H10X     HAL2     0.900000E-01   1.00800           0
     15364 MEMB     116      POPC     H10Y     HAL2     0.900000E-01   1.00800           0
     15365 MEMB     116      POPC     C311     CTL2    -0.180000       12.0110           0
     15366 MEMB     116      POPC     H11X     HAL2     0.900000E-01   1.00800           0
     15367 MEMB     116      POPC     H11Y     HAL2     0.900000E-01   1.00800           0
     15368 MEMB     116      POPC     C312     CTL2    -0.180000       12.0110           0
     15369 MEMB     116      POPC     H12X     HAL2     0.900000E-01   1.00800           0
     15370 MEMB     116      POPC     H12Y     HAL2     0.900000E-01   1.00800           0
     15371 MEMB     116      POPC     C313     CTL2    -0.180000       12.0110           0
     15372 MEMB     116      POPC     H13X     HAL2     0.900000E-01   1.00800           0
     15373 MEMB     116      POPC     H13Y     HAL2     0.900000E-01   1.00800           0
     15374 MEMB     116      POPC     C314     CTL2    -0.180000       12.0110           0
     15375 MEMB     116      POPC     H14X     HAL2     0.900000E-01   1.00800           0
     15376 MEMB     116      POPC     H14Y     HAL2     0.900000E-01   1.00800           0
     15377 MEMB     116      POPC     C315     CTL2    -0.180000       12.0110           0
     15378 MEMB     116      POPC     H15X     HAL2     0.900000E-01   1.00800           0
     15379 MEMB     116      POPC     H15Y     HAL2     0.900000E-01   1.00800           0
     15380 MEMB     116      POPC     C316     CTL3    -0.270000       12.0110           0
     15381 MEMB     116      POPC     H16X     HAL3     0.900000E-01   1.00800           0
     15382 MEMB     116      POPC     H16Y     HAL3     0.900000E-01   1.00800           0
     15383 MEMB     116      POPC     H16Z     HAL3     0.900000E-01   1.00800           0
     15384 MEMB     117      POPC     N        NTL     -0.600000       14.0070           0
     15385 MEMB     117      POPC     C12      CTL2    -0.100000       12.0110           0
     15386 MEMB     117      POPC     H12A     HL       0.250000       1.00800           0
     15387 MEMB     117      POPC     H12B     HL       0.250000       1.00800           0
     15388 MEMB     117      POPC     C13      CTL5    -0.350000       12.0110           0
     15389 MEMB     117      POPC     H13A     HL       0.250000       1.00800           0
     15390 MEMB     117      POPC     H13B     HL       0.250000       1.00800           0
     15391 MEMB     117      POPC     H13C     HL       0.250000       1.00800           0
     15392 MEMB     117      POPC     C14      CTL5    -0.350000       12.0110           0
     15393 MEMB     117      POPC     H14A     HL       0.250000       1.00800           0
     15394 MEMB     117      POPC     H14B     HL       0.250000       1.00800           0
     15395 MEMB     117      POPC     H14C     HL       0.250000       1.00800           0
     15396 MEMB     117      POPC     C15      CTL5    -0.350000       12.0110           0
     15397 MEMB     117      POPC     H15A     HL       0.250000       1.00800           0
     15398 MEMB     117      POPC     H15B     HL       0.250000       1.00800           0
     15399 MEMB     117      POPC     H15C     HL       0.250000       1.00800           0
     15400 MEMB     117      POPC     C11      CTL2    -0.800000E-01   12.0110           0
     15401 MEMB     117      POPC     H11A     HAL2     0.900000E-01   1.00800           0
     15402 MEMB     117      POPC     H11B     HAL2     0.900000E-01   1.00800           0
     15403 MEMB     117      POPC     P        PL        1.50000       30.9740           0
     15404 MEMB     117      POPC     O13      O2L     -0.780000       15.9994           0
     15405 MEMB     117      POPC     O14      O2L     -0.780000       15.9994           0
     15406 MEMB     117      POPC     O12      OSLP    -0.570000       15.9994           0
     15407 MEMB     117      POPC     O11      OSLP    -0.570000       15.9994           0
     15408 MEMB     117      POPC     C1       CTL2    -0.800000E-01   12.0110           0
     15409 MEMB     117      POPC     HA       HAL2     0.900000E-01   1.00800           0
     15410 MEMB     117      POPC     HB       HAL2     0.900000E-01   1.00800           0
     15411 MEMB     117      POPC     C2       CTL1     0.170000       12.0110           0
     15412 MEMB     117      POPC     HS       HAL1     0.900000E-01   1.00800           0
     15413 MEMB     117      POPC     O21      OSL     -0.490000       15.9994           0
     15414 MEMB     117      POPC     C21      CL       0.900000       12.0110           0
     15415 MEMB     117      POPC     O22      OBL     -0.630000       15.9994           0
     15416 MEMB     117      POPC     C22      CTL2    -0.220000       12.0110           0
     15417 MEMB     117      POPC     H2R      HAL2     0.900000E-01   1.00800           0
     15418 MEMB     117      POPC     H2S      HAL2     0.900000E-01   1.00800           0
     15419 MEMB     117      POPC     C3       CTL2     0.800000E-01   12.0110           0
     15420 MEMB     117      POPC     HX       HAL2     0.900000E-01   1.00800           0
     15421 MEMB     117      POPC     HY       HAL2     0.900000E-01   1.00800           0
     15422 MEMB     117      POPC     O31      OSL     -0.490000       15.9994           0
     15423 MEMB     117      POPC     C31      CL       0.900000       12.0110           0
     15424 MEMB     117      POPC     O32      OBL     -0.630000       15.9994           0
     15425 MEMB     117      POPC     C32      CTL2    -0.220000       12.0110           0
     15426 MEMB     117      POPC     H2X      HAL2     0.900000E-01   1.00800           0
     15427 MEMB     117      POPC     H2Y      HAL2     0.900000E-01   1.00800           0
     15428 MEMB     117      POPC     C23      CTL2    -0.180000       12.0110           0
     15429 MEMB     117      POPC     H3R      HAL2     0.900000E-01   1.00800           0
     15430 MEMB     117      POPC     H3S      HAL2     0.900000E-01   1.00800           0
     15431 MEMB     117      POPC     C24      CTL2    -0.180000       12.0110           0
     15432 MEMB     117      POPC     H4R      HAL2     0.900000E-01   1.00800           0
     15433 MEMB     117      POPC     H4S      HAL2     0.900000E-01   1.00800           0
     15434 MEMB     117      POPC     C25      CTL2    -0.180000       12.0110           0
     15435 MEMB     117      POPC     H5R      HAL2     0.900000E-01   1.00800           0
     15436 MEMB     117      POPC     H5S      HAL2     0.900000E-01   1.00800           0
     15437 MEMB     117      POPC     C26      CTL2    -0.180000       12.0110           0
     15438 MEMB     117      POPC     H6R      HAL2     0.900000E-01   1.00800           0
     15439 MEMB     117      POPC     H6S      HAL2     0.900000E-01   1.00800           0
     15440 MEMB     117      POPC     C27      CTL2    -0.180000       12.0110           0
     15441 MEMB     117      POPC     H7R      HAL2     0.900000E-01   1.00800           0
     15442 MEMB     117      POPC     H7S      HAL2     0.900000E-01   1.00800           0
     15443 MEMB     117      POPC     C28      CTL2    -0.180000       12.0110           0
     15444 MEMB     117      POPC     H8R      HAL2     0.900000E-01   1.00800           0
     15445 MEMB     117      POPC     H8S      HAL2     0.900000E-01   1.00800           0
     15446 MEMB     117      POPC     C29      CEL1    -0.150000       12.0110           0
     15447 MEMB     117      POPC     H91      HEL1     0.150000       1.00800           0
     15448 MEMB     117      POPC     C210     CEL1    -0.150000       12.0110           0
     15449 MEMB     117      POPC     H101     HEL1     0.150000       1.00800           0
     15450 MEMB     117      POPC     C211     CTL2    -0.180000       12.0110           0
     15451 MEMB     117      POPC     H11R     HAL2     0.900000E-01   1.00800           0
     15452 MEMB     117      POPC     H11S     HAL2     0.900000E-01   1.00800           0
     15453 MEMB     117      POPC     C212     CTL2    -0.180000       12.0110           0
     15454 MEMB     117      POPC     H12R     HAL2     0.900000E-01   1.00800           0
     15455 MEMB     117      POPC     H12S     HAL2     0.900000E-01   1.00800           0
     15456 MEMB     117      POPC     C213     CTL2    -0.180000       12.0110           0
     15457 MEMB     117      POPC     H13R     HAL2     0.900000E-01   1.00800           0
     15458 MEMB     117      POPC     H13S     HAL2     0.900000E-01   1.00800           0
     15459 MEMB     117      POPC     C214     CTL2    -0.180000       12.0110           0
     15460 MEMB     117      POPC     H14R     HAL2     0.900000E-01   1.00800           0
     15461 MEMB     117      POPC     H14S     HAL2     0.900000E-01   1.00800           0
     15462 MEMB     117      POPC     C215     CTL2    -0.180000       12.0110           0
     15463 MEMB     117      POPC     H15R     HAL2     0.900000E-01   1.00800           0
     15464 MEMB     117      POPC     H15S     HAL2     0.900000E-01   1.00800           0
     15465 MEMB     117      POPC     C216     CTL2    -0.180000       12.0110           0
     15466 MEMB     117      POPC     H16R     HAL2     0.900000E-01   1.00800           0
     15467 MEMB     117      POPC     H16S     HAL2     0.900000E-01   1.00800           0
     15468 MEMB     117      POPC     C217     CTL2    -0.180000       12.0110           0
     15469 MEMB     117      POPC     H17R     HAL2     0.900000E-01   1.00800           0
     15470 MEMB     117      POPC     H17S     HAL2     0.900000E-01   1.00800           0
     15471 MEMB     117      POPC     C218     CTL3    -0.270000       12.0110           0
     15472 MEMB     117      POPC     H18R     HAL3     0.900000E-01   1.00800           0
     15473 MEMB     117      POPC     H18S     HAL3     0.900000E-01   1.00800           0
     15474 MEMB     117      POPC     H18T     HAL3     0.900000E-01   1.00800           0
     15475 MEMB     117      POPC     C33      CTL2    -0.180000       12.0110           0
     15476 MEMB     117      POPC     H3X      HAL2     0.900000E-01   1.00800           0
     15477 MEMB     117      POPC     H3Y      HAL2     0.900000E-01   1.00800           0
     15478 MEMB     117      POPC     C34      CTL2    -0.180000       12.0110           0
     15479 MEMB     117      POPC     H4X      HAL2     0.900000E-01   1.00800           0
     15480 MEMB     117      POPC     H4Y      HAL2     0.900000E-01   1.00800           0
     15481 MEMB     117      POPC     C35      CTL2    -0.180000       12.0110           0
     15482 MEMB     117      POPC     H5X      HAL2     0.900000E-01   1.00800           0
     15483 MEMB     117      POPC     H5Y      HAL2     0.900000E-01   1.00800           0
     15484 MEMB     117      POPC     C36      CTL2    -0.180000       12.0110           0
     15485 MEMB     117      POPC     H6X      HAL2     0.900000E-01   1.00800           0
     15486 MEMB     117      POPC     H6Y      HAL2     0.900000E-01   1.00800           0
     15487 MEMB     117      POPC     C37      CTL2    -0.180000       12.0110           0
     15488 MEMB     117      POPC     H7X      HAL2     0.900000E-01   1.00800           0
     15489 MEMB     117      POPC     H7Y      HAL2     0.900000E-01   1.00800           0
     15490 MEMB     117      POPC     C38      CTL2    -0.180000       12.0110           0
     15491 MEMB     117      POPC     H8X      HAL2     0.900000E-01   1.00800           0
     15492 MEMB     117      POPC     H8Y      HAL2     0.900000E-01   1.00800           0
     15493 MEMB     117      POPC     C39      CTL2    -0.180000       12.0110           0
     15494 MEMB     117      POPC     H9X      HAL2     0.900000E-01   1.00800           0
     15495 MEMB     117      POPC     H9Y      HAL2     0.900000E-01   1.00800           0
     15496 MEMB     117      POPC     C310     CTL2    -0.180000       12.0110           0
     15497 MEMB     117      POPC     H10X     HAL2     0.900000E-01   1.00800           0
     15498 MEMB     117      POPC     H10Y     HAL2     0.900000E-01   1.00800           0
     15499 MEMB     117      POPC     C311     CTL2    -0.180000       12.0110           0
     15500 MEMB     117      POPC     H11X     HAL2     0.900000E-01   1.00800           0
     15501 MEMB     117      POPC     H11Y     HAL2     0.900000E-01   1.00800           0
     15502 MEMB     117      POPC     C312     CTL2    -0.180000       12.0110           0
     15503 MEMB     117      POPC     H12X     HAL2     0.900000E-01   1.00800           0
     15504 MEMB     117      POPC     H12Y     HAL2     0.900000E-01   1.00800           0
     15505 MEMB     117      POPC     C313     CTL2    -0.180000       12.0110           0
     15506 MEMB     117      POPC     H13X     HAL2     0.900000E-01   1.00800           0
     15507 MEMB     117      POPC     H13Y     HAL2     0.900000E-01   1.00800           0
     15508 MEMB     117      POPC     C314     CTL2    -0.180000       12.0110           0
     15509 MEMB     117      POPC     H14X     HAL2     0.900000E-01   1.00800           0
     15510 MEMB     117      POPC     H14Y     HAL2     0.900000E-01   1.00800           0
     15511 MEMB     117      POPC     C315     CTL2    -0.180000       12.0110           0
     15512 MEMB     117      POPC     H15X     HAL2     0.900000E-01   1.00800           0
     15513 MEMB     117      POPC     H15Y     HAL2     0.900000E-01   1.00800           0
     15514 MEMB     117      POPC     C316     CTL3    -0.270000       12.0110           0
     15515 MEMB     117      POPC     H16X     HAL3     0.900000E-01   1.00800           0
     15516 MEMB     117      POPC     H16Y     HAL3     0.900000E-01   1.00800           0
     15517 MEMB     117      POPC     H16Z     HAL3     0.900000E-01   1.00800           0
     15518 MEMB     118      POPC     N        NTL     -0.600000       14.0070           0
     15519 MEMB     118      POPC     C12      CTL2    -0.100000       12.0110           0
     15520 MEMB     118      POPC     H12A     HL       0.250000       1.00800           0
     15521 MEMB     118      POPC     H12B     HL       0.250000       1.00800           0
     15522 MEMB     118      POPC     C13      CTL5    -0.350000       12.0110           0
     15523 MEMB     118      POPC     H13A     HL       0.250000       1.00800           0
     15524 MEMB     118      POPC     H13B     HL       0.250000       1.00800           0
     15525 MEMB     118      POPC     H13C     HL       0.250000       1.00800           0
     15526 MEMB     118      POPC     C14      CTL5    -0.350000       12.0110           0
     15527 MEMB     118      POPC     H14A     HL       0.250000       1.00800           0
     15528 MEMB     118      POPC     H14B     HL       0.250000       1.00800           0
     15529 MEMB     118      POPC     H14C     HL       0.250000       1.00800           0
     15530 MEMB     118      POPC     C15      CTL5    -0.350000       12.0110           0
     15531 MEMB     118      POPC     H15A     HL       0.250000       1.00800           0
     15532 MEMB     118      POPC     H15B     HL       0.250000       1.00800           0
     15533 MEMB     118      POPC     H15C     HL       0.250000       1.00800           0
     15534 MEMB     118      POPC     C11      CTL2    -0.800000E-01   12.0110           0
     15535 MEMB     118      POPC     H11A     HAL2     0.900000E-01   1.00800           0
     15536 MEMB     118      POPC     H11B     HAL2     0.900000E-01   1.00800           0
     15537 MEMB     118      POPC     P        PL        1.50000       30.9740           0
     15538 MEMB     118      POPC     O13      O2L     -0.780000       15.9994           0
     15539 MEMB     118      POPC     O14      O2L     -0.780000       15.9994           0
     15540 MEMB     118      POPC     O12      OSLP    -0.570000       15.9994           0
     15541 MEMB     118      POPC     O11      OSLP    -0.570000       15.9994           0
     15542 MEMB     118      POPC     C1       CTL2    -0.800000E-01   12.0110           0
     15543 MEMB     118      POPC     HA       HAL2     0.900000E-01   1.00800           0
     15544 MEMB     118      POPC     HB       HAL2     0.900000E-01   1.00800           0
     15545 MEMB     118      POPC     C2       CTL1     0.170000       12.0110           0
     15546 MEMB     118      POPC     HS       HAL1     0.900000E-01   1.00800           0
     15547 MEMB     118      POPC     O21      OSL     -0.490000       15.9994           0
     15548 MEMB     118      POPC     C21      CL       0.900000       12.0110           0
     15549 MEMB     118      POPC     O22      OBL     -0.630000       15.9994           0
     15550 MEMB     118      POPC     C22      CTL2    -0.220000       12.0110           0
     15551 MEMB     118      POPC     H2R      HAL2     0.900000E-01   1.00800           0
     15552 MEMB     118      POPC     H2S      HAL2     0.900000E-01   1.00800           0
     15553 MEMB     118      POPC     C3       CTL2     0.800000E-01   12.0110           0
     15554 MEMB     118      POPC     HX       HAL2     0.900000E-01   1.00800           0
     15555 MEMB     118      POPC     HY       HAL2     0.900000E-01   1.00800           0
     15556 MEMB     118      POPC     O31      OSL     -0.490000       15.9994           0
     15557 MEMB     118      POPC     C31      CL       0.900000       12.0110           0
     15558 MEMB     118      POPC     O32      OBL     -0.630000       15.9994           0
     15559 MEMB     118      POPC     C32      CTL2    -0.220000       12.0110           0
     15560 MEMB     118      POPC     H2X      HAL2     0.900000E-01   1.00800           0
     15561 MEMB     118      POPC     H2Y      HAL2     0.900000E-01   1.00800           0
     15562 MEMB     118      POPC     C23      CTL2    -0.180000       12.0110           0
     15563 MEMB     118      POPC     H3R      HAL2     0.900000E-01   1.00800           0
     15564 MEMB     118      POPC     H3S      HAL2     0.900000E-01   1.00800           0
     15565 MEMB     118      POPC     C24      CTL2    -0.180000       12.0110           0
     15566 MEMB     118      POPC     H4R      HAL2     0.900000E-01   1.00800           0
     15567 MEMB     118      POPC     H4S      HAL2     0.900000E-01   1.00800           0
     15568 MEMB     118      POPC     C25      CTL2    -0.180000       12.0110           0
     15569 MEMB     118      POPC     H5R      HAL2     0.900000E-01   1.00800           0
     15570 MEMB     118      POPC     H5S      HAL2     0.900000E-01   1.00800           0
     15571 MEMB     118      POPC     C26      CTL2    -0.180000       12.0110           0
     15572 MEMB     118      POPC     H6R      HAL2     0.900000E-01   1.00800           0
     15573 MEMB     118      POPC     H6S      HAL2     0.900000E-01   1.00800           0
     15574 MEMB     118      POPC     C27      CTL2    -0.180000       12.0110           0
     15575 MEMB     118      POPC     H7R      HAL2     0.900000E-01   1.00800           0
     15576 MEMB     118      POPC     H7S      HAL2     0.900000E-01   1.00800           0
     15577 MEMB     118      POPC     C28      CTL2    -0.180000       12.0110           0
     15578 MEMB     118      POPC     H8R      HAL2     0.900000E-01   1.00800           0
     15579 MEMB     118      POPC     H8S      HAL2     0.900000E-01   1.00800           0
     15580 MEMB     118      POPC     C29      CEL1    -0.150000       12.0110           0
     15581 MEMB     118      POPC     H91      HEL1     0.150000       1.00800           0
     15582 MEMB     118      POPC     C210     CEL1    -0.150000       12.0110           0
     15583 MEMB     118      POPC     H101     HEL1     0.150000       1.00800           0
     15584 MEMB     118      POPC     C211     CTL2    -0.180000       12.0110           0
     15585 MEMB     118      POPC     H11R     HAL2     0.900000E-01   1.00800           0
     15586 MEMB     118      POPC     H11S     HAL2     0.900000E-01   1.00800           0
     15587 MEMB     118      POPC     C212     CTL2    -0.180000       12.0110           0
     15588 MEMB     118      POPC     H12R     HAL2     0.900000E-01   1.00800           0
     15589 MEMB     118      POPC     H12S     HAL2     0.900000E-01   1.00800           0
     15590 MEMB     118      POPC     C213     CTL2    -0.180000       12.0110           0
     15591 MEMB     118      POPC     H13R     HAL2     0.900000E-01   1.00800           0
     15592 MEMB     118      POPC     H13S     HAL2     0.900000E-01   1.00800           0
     15593 MEMB     118      POPC     C214     CTL2    -0.180000       12.0110           0
     15594 MEMB     118      POPC     H14R     HAL2     0.900000E-01   1.00800           0
     15595 MEMB     118      POPC     H14S     HAL2     0.900000E-01   1.00800           0
     15596 MEMB     118      POPC     C215     CTL2    -0.180000       12.0110           0
     15597 MEMB     118      POPC     H15R     HAL2     0.900000E-01   1.00800           0
     15598 MEMB     118      POPC     H15S     HAL2     0.900000E-01   1.00800           0
     15599 MEMB     118      POPC     C216     CTL2    -0.180000       12.0110           0
     15600 MEMB     118      POPC     H16R     HAL2     0.900000E-01   1.00800           0
     15601 MEMB     118      POPC     H16S     HAL2     0.900000E-01   1.00800           0
     15602 MEMB     118      POPC     C217     CTL2    -0.180000       12.0110           0
     15603 MEMB     118      POPC     H17R     HAL2     0.900000E-01   1.00800           0
     15604 MEMB     118      POPC     H17S     HAL2     0.900000E-01   1.00800           0
     15605 MEMB     118      POPC     C218     CTL3    -0.270000       12.0110           0
     15606 MEMB     118      POPC     H18R     HAL3     0.900000E-01   1.00800           0
     15607 MEMB     118      POPC     H18S     HAL3     0.900000E-01   1.00800           0
     15608 MEMB     118      POPC     H18T     HAL3     0.900000E-01   1.00800           0
     15609 MEMB     118      POPC     C33      CTL2    -0.180000       12.0110           0
     15610 MEMB     118      POPC     H3X      HAL2     0.900000E-01   1.00800           0
     15611 MEMB     118      POPC     H3Y      HAL2     0.900000E-01   1.00800           0
     15612 MEMB     118      POPC     C34      CTL2    -0.180000       12.0110           0
     15613 MEMB     118      POPC     H4X      HAL2     0.900000E-01   1.00800           0
     15614 MEMB     118      POPC     H4Y      HAL2     0.900000E-01   1.00800           0
     15615 MEMB     118      POPC     C35      CTL2    -0.180000       12.0110           0
     15616 MEMB     118      POPC     H5X      HAL2     0.900000E-01   1.00800           0
     15617 MEMB     118      POPC     H5Y      HAL2     0.900000E-01   1.00800           0
     15618 MEMB     118      POPC     C36      CTL2    -0.180000       12.0110           0
     15619 MEMB     118      POPC     H6X      HAL2     0.900000E-01   1.00800           0
     15620 MEMB     118      POPC     H6Y      HAL2     0.900000E-01   1.00800           0
     15621 MEMB     118      POPC     C37      CTL2    -0.180000       12.0110           0
     15622 MEMB     118      POPC     H7X      HAL2     0.900000E-01   1.00800           0
     15623 MEMB     118      POPC     H7Y      HAL2     0.900000E-01   1.00800           0
     15624 MEMB     118      POPC     C38      CTL2    -0.180000       12.0110           0
     15625 MEMB     118      POPC     H8X      HAL2     0.900000E-01   1.00800           0
     15626 MEMB     118      POPC     H8Y      HAL2     0.900000E-01   1.00800           0
     15627 MEMB     118      POPC     C39      CTL2    -0.180000       12.0110           0
     15628 MEMB     118      POPC     H9X      HAL2     0.900000E-01   1.00800           0
     15629 MEMB     118      POPC     H9Y      HAL2     0.900000E-01   1.00800           0
     15630 MEMB     118      POPC     C310     CTL2    -0.180000       12.0110           0
     15631 MEMB     118      POPC     H10X     HAL2     0.900000E-01   1.00800           0
     15632 MEMB     118      POPC     H10Y     HAL2     0.900000E-01   1.00800           0
     15633 MEMB     118      POPC     C311     CTL2    -0.180000       12.0110           0
     15634 MEMB     118      POPC     H11X     HAL2     0.900000E-01   1.00800           0
     15635 MEMB     118      POPC     H11Y     HAL2     0.900000E-01   1.00800           0
     15636 MEMB     118      POPC     C312     CTL2    -0.180000       12.0110           0
     15637 MEMB     118      POPC     H12X     HAL2     0.900000E-01   1.00800           0
     15638 MEMB     118      POPC     H12Y     HAL2     0.900000E-01   1.00800           0
     15639 MEMB     118      POPC     C313     CTL2    -0.180000       12.0110           0
     15640 MEMB     118      POPC     H13X     HAL2     0.900000E-01   1.00800           0
     15641 MEMB     118      POPC     H13Y     HAL2     0.900000E-01   1.00800           0
     15642 MEMB     118      POPC     C314     CTL2    -0.180000       12.0110           0
     15643 MEMB     118      POPC     H14X     HAL2     0.900000E-01   1.00800           0
     15644 MEMB     118      POPC     H14Y     HAL2     0.900000E-01   1.00800           0
     15645 MEMB     118      POPC     C315     CTL2    -0.180000       12.0110           0
     15646 MEMB     118      POPC     H15X     HAL2     0.900000E-01   1.00800           0
     15647 MEMB     118      POPC     H15Y     HAL2     0.900000E-01   1.00800           0
     15648 MEMB     118      POPC     C316     CTL3    -0.270000       12.0110           0
     15649 MEMB     118      POPC     H16X     HAL3     0.900000E-01   1.00800           0
     15650 MEMB     118      POPC     H16Y     HAL3     0.900000E-01   1.00800           0
     15651 MEMB     118      POPC     H16Z     HAL3     0.900000E-01   1.00800           0
     15652 MEMB     119      POPC     N        NTL     -0.600000       14.0070           0
     15653 MEMB     119      POPC     C12      CTL2    -0.100000       12.0110           0
     15654 MEMB     119      POPC     H12A     HL       0.250000       1.00800           0
     15655 MEMB     119      POPC     H12B     HL       0.250000       1.00800           0
     15656 MEMB     119      POPC     C13      CTL5    -0.350000       12.0110           0
     15657 MEMB     119      POPC     H13A     HL       0.250000       1.00800           0
     15658 MEMB     119      POPC     H13B     HL       0.250000       1.00800           0
     15659 MEMB     119      POPC     H13C     HL       0.250000       1.00800           0
     15660 MEMB     119      POPC     C14      CTL5    -0.350000       12.0110           0
     15661 MEMB     119      POPC     H14A     HL       0.250000       1.00800           0
     15662 MEMB     119      POPC     H14B     HL       0.250000       1.00800           0
     15663 MEMB     119      POPC     H14C     HL       0.250000       1.00800           0
     15664 MEMB     119      POPC     C15      CTL5    -0.350000       12.0110           0
     15665 MEMB     119      POPC     H15A     HL       0.250000       1.00800           0
     15666 MEMB     119      POPC     H15B     HL       0.250000       1.00800           0
     15667 MEMB     119      POPC     H15C     HL       0.250000       1.00800           0
     15668 MEMB     119      POPC     C11      CTL2    -0.800000E-01   12.0110           0
     15669 MEMB     119      POPC     H11A     HAL2     0.900000E-01   1.00800           0
     15670 MEMB     119      POPC     H11B     HAL2     0.900000E-01   1.00800           0
     15671 MEMB     119      POPC     P        PL        1.50000       30.9740           0
     15672 MEMB     119      POPC     O13      O2L     -0.780000       15.9994           0
     15673 MEMB     119      POPC     O14      O2L     -0.780000       15.9994           0
     15674 MEMB     119      POPC     O12      OSLP    -0.570000       15.9994           0
     15675 MEMB     119      POPC     O11      OSLP    -0.570000       15.9994           0
     15676 MEMB     119      POPC     C1       CTL2    -0.800000E-01   12.0110           0
     15677 MEMB     119      POPC     HA       HAL2     0.900000E-01   1.00800           0
     15678 MEMB     119      POPC     HB       HAL2     0.900000E-01   1.00800           0
     15679 MEMB     119      POPC     C2       CTL1     0.170000       12.0110           0
     15680 MEMB     119      POPC     HS       HAL1     0.900000E-01   1.00800           0
     15681 MEMB     119      POPC     O21      OSL     -0.490000       15.9994           0
     15682 MEMB     119      POPC     C21      CL       0.900000       12.0110           0
     15683 MEMB     119      POPC     O22      OBL     -0.630000       15.9994           0
     15684 MEMB     119      POPC     C22      CTL2    -0.220000       12.0110           0
     15685 MEMB     119      POPC     H2R      HAL2     0.900000E-01   1.00800           0
     15686 MEMB     119      POPC     H2S      HAL2     0.900000E-01   1.00800           0
     15687 MEMB     119      POPC     C3       CTL2     0.800000E-01   12.0110           0
     15688 MEMB     119      POPC     HX       HAL2     0.900000E-01   1.00800           0
     15689 MEMB     119      POPC     HY       HAL2     0.900000E-01   1.00800           0
     15690 MEMB     119      POPC     O31      OSL     -0.490000       15.9994           0
     15691 MEMB     119      POPC     C31      CL       0.900000       12.0110           0
     15692 MEMB     119      POPC     O32      OBL     -0.630000       15.9994           0
     15693 MEMB     119      POPC     C32      CTL2    -0.220000       12.0110           0
     15694 MEMB     119      POPC     H2X      HAL2     0.900000E-01   1.00800           0
     15695 MEMB     119      POPC     H2Y      HAL2     0.900000E-01   1.00800           0
     15696 MEMB     119      POPC     C23      CTL2    -0.180000       12.0110           0
     15697 MEMB     119      POPC     H3R      HAL2     0.900000E-01   1.00800           0
     15698 MEMB     119      POPC     H3S      HAL2     0.900000E-01   1.00800           0
     15699 MEMB     119      POPC     C24      CTL2    -0.180000       12.0110           0
     15700 MEMB     119      POPC     H4R      HAL2     0.900000E-01   1.00800           0
     15701 MEMB     119      POPC     H4S      HAL2     0.900000E-01   1.00800           0
     15702 MEMB     119      POPC     C25      CTL2    -0.180000       12.0110           0
     15703 MEMB     119      POPC     H5R      HAL2     0.900000E-01   1.00800           0
     15704 MEMB     119      POPC     H5S      HAL2     0.900000E-01   1.00800           0
     15705 MEMB     119      POPC     C26      CTL2    -0.180000       12.0110           0
     15706 MEMB     119      POPC     H6R      HAL2     0.900000E-01   1.00800           0
     15707 MEMB     119      POPC     H6S      HAL2     0.900000E-01   1.00800           0
     15708 MEMB     119      POPC     C27      CTL2    -0.180000       12.0110           0
     15709 MEMB     119      POPC     H7R      HAL2     0.900000E-01   1.00800           0
     15710 MEMB     119      POPC     H7S      HAL2     0.900000E-01   1.00800           0
     15711 MEMB     119      POPC     C28      CTL2    -0.180000       12.0110           0
     15712 MEMB     119      POPC     H8R      HAL2     0.900000E-01   1.00800           0
     15713 MEMB     119      POPC     H8S      HAL2     0.900000E-01   1.00800           0
     15714 MEMB     119      POPC     C29      CEL1    -0.150000       12.0110           0
     15715 MEMB     119      POPC     H91      HEL1     0.150000       1.00800           0
     15716 MEMB     119      POPC     C210     CEL1    -0.150000       12.0110           0
     15717 MEMB     119      POPC     H101     HEL1     0.150000       1.00800           0
     15718 MEMB     119      POPC     C211     CTL2    -0.180000       12.0110           0
     15719 MEMB     119      POPC     H11R     HAL2     0.900000E-01   1.00800           0
     15720 MEMB     119      POPC     H11S     HAL2     0.900000E-01   1.00800           0
     15721 MEMB     119      POPC     C212     CTL2    -0.180000       12.0110           0
     15722 MEMB     119      POPC     H12R     HAL2     0.900000E-01   1.00800           0
     15723 MEMB     119      POPC     H12S     HAL2     0.900000E-01   1.00800           0
     15724 MEMB     119      POPC     C213     CTL2    -0.180000       12.0110           0
     15725 MEMB     119      POPC     H13R     HAL2     0.900000E-01   1.00800           0
     15726 MEMB     119      POPC     H13S     HAL2     0.900000E-01   1.00800           0
     15727 MEMB     119      POPC     C214     CTL2    -0.180000       12.0110           0
     15728 MEMB     119      POPC     H14R     HAL2     0.900000E-01   1.00800           0
     15729 MEMB     119      POPC     H14S     HAL2     0.900000E-01   1.00800           0
     15730 MEMB     119      POPC     C215     CTL2    -0.180000       12.0110           0
     15731 MEMB     119      POPC     H15R     HAL2     0.900000E-01   1.00800           0
     15732 MEMB     119      POPC     H15S     HAL2     0.900000E-01   1.00800           0
     15733 MEMB     119      POPC     C216     CTL2    -0.180000       12.0110           0
     15734 MEMB     119      POPC     H16R     HAL2     0.900000E-01   1.00800           0
     15735 MEMB     119      POPC     H16S     HAL2     0.900000E-01   1.00800           0
     15736 MEMB     119      POPC     C217     CTL2    -0.180000       12.0110           0
     15737 MEMB     119      POPC     H17R     HAL2     0.900000E-01   1.00800           0
     15738 MEMB     119      POPC     H17S     HAL2     0.900000E-01   1.00800           0
     15739 MEMB     119      POPC     C218     CTL3    -0.270000       12.0110           0
     15740 MEMB     119      POPC     H18R     HAL3     0.900000E-01   1.00800           0
     15741 MEMB     119      POPC     H18S     HAL3     0.900000E-01   1.00800           0
     15742 MEMB     119      POPC     H18T     HAL3     0.900000E-01   1.00800           0
     15743 MEMB     119      POPC     C33      CTL2    -0.180000       12.0110           0
     15744 MEMB     119      POPC     H3X      HAL2     0.900000E-01   1.00800           0
     15745 MEMB     119      POPC     H3Y      HAL2     0.900000E-01   1.00800           0
     15746 MEMB     119      POPC     C34      CTL2    -0.180000       12.0110           0
     15747 MEMB     119      POPC     H4X      HAL2     0.900000E-01   1.00800           0
     15748 MEMB     119      POPC     H4Y      HAL2     0.900000E-01   1.00800           0
     15749 MEMB     119      POPC     C35      CTL2    -0.180000       12.0110           0
     15750 MEMB     119      POPC     H5X      HAL2     0.900000E-01   1.00800           0
     15751 MEMB     119      POPC     H5Y      HAL2     0.900000E-01   1.00800           0
     15752 MEMB     119      POPC     C36      CTL2    -0.180000       12.0110           0
     15753 MEMB     119      POPC     H6X      HAL2     0.900000E-01   1.00800           0
     15754 MEMB     119      POPC     H6Y      HAL2     0.900000E-01   1.00800           0
     15755 MEMB     119      POPC     C37      CTL2    -0.180000       12.0110           0
     15756 MEMB     119      POPC     H7X      HAL2     0.900000E-01   1.00800           0
     15757 MEMB     119      POPC     H7Y      HAL2     0.900000E-01   1.00800           0
     15758 MEMB     119      POPC     C38      CTL2    -0.180000       12.0110           0
     15759 MEMB     119      POPC     H8X      HAL2     0.900000E-01   1.00800           0
     15760 MEMB     119      POPC     H8Y      HAL2     0.900000E-01   1.00800           0
     15761 MEMB     119      POPC     C39      CTL2    -0.180000       12.0110           0
     15762 MEMB     119      POPC     H9X      HAL2     0.900000E-01   1.00800           0
     15763 MEMB     119      POPC     H9Y      HAL2     0.900000E-01   1.00800           0
     15764 MEMB     119      POPC     C310     CTL2    -0.180000       12.0110           0
     15765 MEMB     119      POPC     H10X     HAL2     0.900000E-01   1.00800           0
     15766 MEMB     119      POPC     H10Y     HAL2     0.900000E-01   1.00800           0
     15767 MEMB     119      POPC     C311     CTL2    -0.180000       12.0110           0
     15768 MEMB     119      POPC     H11X     HAL2     0.900000E-01   1.00800           0
     15769 MEMB     119      POPC     H11Y     HAL2     0.900000E-01   1.00800           0
     15770 MEMB     119      POPC     C312     CTL2    -0.180000       12.0110           0
     15771 MEMB     119      POPC     H12X     HAL2     0.900000E-01   1.00800           0
     15772 MEMB     119      POPC     H12Y     HAL2     0.900000E-01   1.00800           0
     15773 MEMB     119      POPC     C313     CTL2    -0.180000       12.0110           0
     15774 MEMB     119      POPC     H13X     HAL2     0.900000E-01   1.00800           0
     15775 MEMB     119      POPC     H13Y     HAL2     0.900000E-01   1.00800           0
     15776 MEMB     119      POPC     C314     CTL2    -0.180000       12.0110           0
     15777 MEMB     119      POPC     H14X     HAL2     0.900000E-01   1.00800           0
     15778 MEMB     119      POPC     H14Y     HAL2     0.900000E-01   1.00800           0
     15779 MEMB     119      POPC     C315     CTL2    -0.180000       12.0110           0
     15780 MEMB     119      POPC     H15X     HAL2     0.900000E-01   1.00800           0
     15781 MEMB     119      POPC     H15Y     HAL2     0.900000E-01   1.00800           0
     15782 MEMB     119      POPC     C316     CTL3    -0.270000       12.0110           0
     15783 MEMB     119      POPC     H16X     HAL3     0.900000E-01   1.00800           0
     15784 MEMB     119      POPC     H16Y     HAL3     0.900000E-01   1.00800           0
     15785 MEMB     119      POPC     H16Z     HAL3     0.900000E-01   1.00800           0
     15786 MEMB     120      POPS     N        NH3L    -0.300000       14.0070           0
     15787 MEMB     120      POPS     HN1      HCL      0.330000       1.00800           0
     15788 MEMB     120      POPS     HN2      HCL      0.330000       1.00800           0
     15789 MEMB     120      POPS     HN3      HCL      0.330000       1.00800           0
     15790 MEMB     120      POPS     C12      CTL1     0.210000       12.0110           0
     15791 MEMB     120      POPS     H12A     HBL      0.100000       1.00800           0
     15792 MEMB     120      POPS     C13      CCL      0.340000       12.0110           0
     15793 MEMB     120      POPS     O13A     OCL     -0.670000       15.9994           0
     15794 MEMB     120      POPS     O13B     OCL     -0.670000       15.9994           0
     15795 MEMB     120      POPS     C11      CTL2    -0.800000E-01   12.0110           0
     15796 MEMB     120      POPS     H11A     HAL2     0.900000E-01   1.00800           0
     15797 MEMB     120      POPS     H11B     HAL2     0.900000E-01   1.00800           0
     15798 MEMB     120      POPS     P        PL        1.50000       30.9740           0
     15799 MEMB     120      POPS     O13      O2L     -0.780000       15.9994           0
     15800 MEMB     120      POPS     O14      O2L     -0.780000       15.9994           0
     15801 MEMB     120      POPS     O12      OSLP    -0.570000       15.9994           0
     15802 MEMB     120      POPS     O11      OSLP    -0.570000       15.9994           0
     15803 MEMB     120      POPS     C1       CTL2    -0.800000E-01   12.0110           0
     15804 MEMB     120      POPS     HA       HAL2     0.900000E-01   1.00800           0
     15805 MEMB     120      POPS     HB       HAL2     0.900000E-01   1.00800           0
     15806 MEMB     120      POPS     C2       CTL1     0.170000       12.0110           0
     15807 MEMB     120      POPS     HS       HAL1     0.900000E-01   1.00800           0
     15808 MEMB     120      POPS     O21      OSL     -0.490000       15.9994           0
     15809 MEMB     120      POPS     C21      CL       0.900000       12.0110           0
     15810 MEMB     120      POPS     O22      OBL     -0.630000       15.9994           0
     15811 MEMB     120      POPS     C22      CTL2    -0.220000       12.0110           0
     15812 MEMB     120      POPS     H2R      HAL2     0.900000E-01   1.00800           0
     15813 MEMB     120      POPS     H2S      HAL2     0.900000E-01   1.00800           0
     15814 MEMB     120      POPS     C3       CTL2     0.800000E-01   12.0110           0
     15815 MEMB     120      POPS     HX       HAL2     0.900000E-01   1.00800           0
     15816 MEMB     120      POPS     HY       HAL2     0.900000E-01   1.00800           0
     15817 MEMB     120      POPS     O31      OSL     -0.490000       15.9994           0
     15818 MEMB     120      POPS     C31      CL       0.900000       12.0110           0
     15819 MEMB     120      POPS     O32      OBL     -0.630000       15.9994           0
     15820 MEMB     120      POPS     C32      CTL2    -0.220000       12.0110           0
     15821 MEMB     120      POPS     H2X      HAL2     0.900000E-01   1.00800           0
     15822 MEMB     120      POPS     H2Y      HAL2     0.900000E-01   1.00800           0
     15823 MEMB     120      POPS     C23      CTL2    -0.180000       12.0110           0
     15824 MEMB     120      POPS     H3R      HAL2     0.900000E-01   1.00800           0
     15825 MEMB     120      POPS     H3S      HAL2     0.900000E-01   1.00800           0
     15826 MEMB     120      POPS     C24      CTL2    -0.180000       12.0110           0
     15827 MEMB     120      POPS     H4R      HAL2     0.900000E-01   1.00800           0
     15828 MEMB     120      POPS     H4S      HAL2     0.900000E-01   1.00800           0
     15829 MEMB     120      POPS     C25      CTL2    -0.180000       12.0110           0
     15830 MEMB     120      POPS     H5R      HAL2     0.900000E-01   1.00800           0
     15831 MEMB     120      POPS     H5S      HAL2     0.900000E-01   1.00800           0
     15832 MEMB     120      POPS     C26      CTL2    -0.180000       12.0110           0
     15833 MEMB     120      POPS     H6R      HAL2     0.900000E-01   1.00800           0
     15834 MEMB     120      POPS     H6S      HAL2     0.900000E-01   1.00800           0
     15835 MEMB     120      POPS     C27      CTL2    -0.180000       12.0110           0
     15836 MEMB     120      POPS     H7R      HAL2     0.900000E-01   1.00800           0
     15837 MEMB     120      POPS     H7S      HAL2     0.900000E-01   1.00800           0
     15838 MEMB     120      POPS     C28      CTL2    -0.180000       12.0110           0
     15839 MEMB     120      POPS     H8R      HAL2     0.900000E-01   1.00800           0
     15840 MEMB     120      POPS     H8S      HAL2     0.900000E-01   1.00800           0
     15841 MEMB     120      POPS     C29      CEL1    -0.150000       12.0110           0
     15842 MEMB     120      POPS     H91      HEL1     0.150000       1.00800           0
     15843 MEMB     120      POPS     C210     CEL1    -0.150000       12.0110           0
     15844 MEMB     120      POPS     H101     HEL1     0.150000       1.00800           0
     15845 MEMB     120      POPS     C211     CTL2    -0.180000       12.0110           0
     15846 MEMB     120      POPS     H11R     HAL2     0.900000E-01   1.00800           0
     15847 MEMB     120      POPS     H11S     HAL2     0.900000E-01   1.00800           0
     15848 MEMB     120      POPS     C212     CTL2    -0.180000       12.0110           0
     15849 MEMB     120      POPS     H12R     HAL2     0.900000E-01   1.00800           0
     15850 MEMB     120      POPS     H12S     HAL2     0.900000E-01   1.00800           0
     15851 MEMB     120      POPS     C213     CTL2    -0.180000       12.0110           0
     15852 MEMB     120      POPS     H13R     HAL2     0.900000E-01   1.00800           0
     15853 MEMB     120      POPS     H13S     HAL2     0.900000E-01   1.00800           0
     15854 MEMB     120      POPS     C214     CTL2    -0.180000       12.0110           0
     15855 MEMB     120      POPS     H14R     HAL2     0.900000E-01   1.00800           0
     15856 MEMB     120      POPS     H14S     HAL2     0.900000E-01   1.00800           0
     15857 MEMB     120      POPS     C215     CTL2    -0.180000       12.0110           0
     15858 MEMB     120      POPS     H15R     HAL2     0.900000E-01   1.00800           0
     15859 MEMB     120      POPS     H15S     HAL2     0.900000E-01   1.00800           0
     15860 MEMB     120      POPS     C216     CTL2    -0.180000       12.0110           0
     15861 MEMB     120      POPS     H16R     HAL2     0.900000E-01   1.00800           0
     15862 MEMB     120      POPS     H16S     HAL2     0.900000E-01   1.00800           0
     15863 MEMB     120      POPS     C217     CTL2    -0.180000       12.0110           0
     15864 MEMB     120      POPS     H17R     HAL2     0.900000E-01   1.00800           0
     15865 MEMB     120      POPS     H17S     HAL2     0.900000E-01   1.00800           0
     15866 MEMB     120      POPS     C218     CTL3    -0.270000       12.0110           0
     15867 MEMB     120      POPS     H18R     HAL3     0.900000E-01   1.00800           0
     15868 MEMB     120      POPS     H18S     HAL3     0.900000E-01   1.00800           0
     15869 MEMB     120      POPS     H18T     HAL3     0.900000E-01   1.00800           0
     15870 MEMB     120      POPS     C33      CTL2    -0.180000       12.0110           0
     15871 MEMB     120      POPS     H3X      HAL2     0.900000E-01   1.00800           0
     15872 MEMB     120      POPS     H3Y      HAL2     0.900000E-01   1.00800           0
     15873 MEMB     120      POPS     C34      CTL2    -0.180000       12.0110           0
     15874 MEMB     120      POPS     H4X      HAL2     0.900000E-01   1.00800           0
     15875 MEMB     120      POPS     H4Y      HAL2     0.900000E-01   1.00800           0
     15876 MEMB     120      POPS     C35      CTL2    -0.180000       12.0110           0
     15877 MEMB     120      POPS     H5X      HAL2     0.900000E-01   1.00800           0
     15878 MEMB     120      POPS     H5Y      HAL2     0.900000E-01   1.00800           0
     15879 MEMB     120      POPS     C36      CTL2    -0.180000       12.0110           0
     15880 MEMB     120      POPS     H6X      HAL2     0.900000E-01   1.00800           0
     15881 MEMB     120      POPS     H6Y      HAL2     0.900000E-01   1.00800           0
     15882 MEMB     120      POPS     C37      CTL2    -0.180000       12.0110           0
     15883 MEMB     120      POPS     H7X      HAL2     0.900000E-01   1.00800           0
     15884 MEMB     120      POPS     H7Y      HAL2     0.900000E-01   1.00800           0
     15885 MEMB     120      POPS     C38      CTL2    -0.180000       12.0110           0
     15886 MEMB     120      POPS     H8X      HAL2     0.900000E-01   1.00800           0
     15887 MEMB     120      POPS     H8Y      HAL2     0.900000E-01   1.00800           0
     15888 MEMB     120      POPS     C39      CTL2    -0.180000       12.0110           0
     15889 MEMB     120      POPS     H9X      HAL2     0.900000E-01   1.00800           0
     15890 MEMB     120      POPS     H9Y      HAL2     0.900000E-01   1.00800           0
     15891 MEMB     120      POPS     C310     CTL2    -0.180000       12.0110           0
     15892 MEMB     120      POPS     H10X     HAL2     0.900000E-01   1.00800           0
     15893 MEMB     120      POPS     H10Y     HAL2     0.900000E-01   1.00800           0
     15894 MEMB     120      POPS     C311     CTL2    -0.180000       12.0110           0
     15895 MEMB     120      POPS     H11X     HAL2     0.900000E-01   1.00800           0
     15896 MEMB     120      POPS     H11Y     HAL2     0.900000E-01   1.00800           0
     15897 MEMB     120      POPS     C312     CTL2    -0.180000       12.0110           0
     15898 MEMB     120      POPS     H12X     HAL2     0.900000E-01   1.00800           0
     15899 MEMB     120      POPS     H12Y     HAL2     0.900000E-01   1.00800           0
     15900 MEMB     120      POPS     C313     CTL2    -0.180000       12.0110           0
     15901 MEMB     120      POPS     H13X     HAL2     0.900000E-01   1.00800           0
     15902 MEMB     120      POPS     H13Y     HAL2     0.900000E-01   1.00800           0
     15903 MEMB     120      POPS     C314     CTL2    -0.180000       12.0110           0
     15904 MEMB     120      POPS     H14X     HAL2     0.900000E-01   1.00800           0
     15905 MEMB     120      POPS     H14Y     HAL2     0.900000E-01   1.00800           0
     15906 MEMB     120      POPS     C315     CTL2    -0.180000       12.0110           0
     15907 MEMB     120      POPS     H15X     HAL2     0.900000E-01   1.00800           0
     15908 MEMB     120      POPS     H15Y     HAL2     0.900000E-01   1.00800           0
     15909 MEMB     120      POPS     C316     CTL3    -0.270000       12.0110           0
     15910 MEMB     120      POPS     H16X     HAL3     0.900000E-01   1.00800           0
     15911 MEMB     120      POPS     H16Y     HAL3     0.900000E-01   1.00800           0
     15912 MEMB     120      POPS     H16Z     HAL3     0.900000E-01   1.00800           0
     15913 MEMB     121      POPC     N        NTL     -0.600000       14.0070           0
     15914 MEMB     121      POPC     C12      CTL2    -0.100000       12.0110           0
     15915 MEMB     121      POPC     H12A     HL       0.250000       1.00800           0
     15916 MEMB     121      POPC     H12B     HL       0.250000       1.00800           0
     15917 MEMB     121      POPC     C13      CTL5    -0.350000       12.0110           0
     15918 MEMB     121      POPC     H13A     HL       0.250000       1.00800           0
     15919 MEMB     121      POPC     H13B     HL       0.250000       1.00800           0
     15920 MEMB     121      POPC     H13C     HL       0.250000       1.00800           0
     15921 MEMB     121      POPC     C14      CTL5    -0.350000       12.0110           0
     15922 MEMB     121      POPC     H14A     HL       0.250000       1.00800           0
     15923 MEMB     121      POPC     H14B     HL       0.250000       1.00800           0
     15924 MEMB     121      POPC     H14C     HL       0.250000       1.00800           0
     15925 MEMB     121      POPC     C15      CTL5    -0.350000       12.0110           0
     15926 MEMB     121      POPC     H15A     HL       0.250000       1.00800           0
     15927 MEMB     121      POPC     H15B     HL       0.250000       1.00800           0
     15928 MEMB     121      POPC     H15C     HL       0.250000       1.00800           0
     15929 MEMB     121      POPC     C11      CTL2    -0.800000E-01   12.0110           0
     15930 MEMB     121      POPC     H11A     HAL2     0.900000E-01   1.00800           0
     15931 MEMB     121      POPC     H11B     HAL2     0.900000E-01   1.00800           0
     15932 MEMB     121      POPC     P        PL        1.50000       30.9740           0
     15933 MEMB     121      POPC     O13      O2L     -0.780000       15.9994           0
     15934 MEMB     121      POPC     O14      O2L     -0.780000       15.9994           0
     15935 MEMB     121      POPC     O12      OSLP    -0.570000       15.9994           0
     15936 MEMB     121      POPC     O11      OSLP    -0.570000       15.9994           0
     15937 MEMB     121      POPC     C1       CTL2    -0.800000E-01   12.0110           0
     15938 MEMB     121      POPC     HA       HAL2     0.900000E-01   1.00800           0
     15939 MEMB     121      POPC     HB       HAL2     0.900000E-01   1.00800           0
     15940 MEMB     121      POPC     C2       CTL1     0.170000       12.0110           0
     15941 MEMB     121      POPC     HS       HAL1     0.900000E-01   1.00800           0
     15942 MEMB     121      POPC     O21      OSL     -0.490000       15.9994           0
     15943 MEMB     121      POPC     C21      CL       0.900000       12.0110           0
     15944 MEMB     121      POPC     O22      OBL     -0.630000       15.9994           0
     15945 MEMB     121      POPC     C22      CTL2    -0.220000       12.0110           0
     15946 MEMB     121      POPC     H2R      HAL2     0.900000E-01   1.00800           0
     15947 MEMB     121      POPC     H2S      HAL2     0.900000E-01   1.00800           0
     15948 MEMB     121      POPC     C3       CTL2     0.800000E-01   12.0110           0
     15949 MEMB     121      POPC     HX       HAL2     0.900000E-01   1.00800           0
     15950 MEMB     121      POPC     HY       HAL2     0.900000E-01   1.00800           0
     15951 MEMB     121      POPC     O31      OSL     -0.490000       15.9994           0
     15952 MEMB     121      POPC     C31      CL       0.900000       12.0110           0
     15953 MEMB     121      POPC     O32      OBL     -0.630000       15.9994           0
     15954 MEMB     121      POPC     C32      CTL2    -0.220000       12.0110           0
     15955 MEMB     121      POPC     H2X      HAL2     0.900000E-01   1.00800           0
     15956 MEMB     121      POPC     H2Y      HAL2     0.900000E-01   1.00800           0
     15957 MEMB     121      POPC     C23      CTL2    -0.180000       12.0110           0
     15958 MEMB     121      POPC     H3R      HAL2     0.900000E-01   1.00800           0
     15959 MEMB     121      POPC     H3S      HAL2     0.900000E-01   1.00800           0
     15960 MEMB     121      POPC     C24      CTL2    -0.180000       12.0110           0
     15961 MEMB     121      POPC     H4R      HAL2     0.900000E-01   1.00800           0
     15962 MEMB     121      POPC     H4S      HAL2     0.900000E-01   1.00800           0
     15963 MEMB     121      POPC     C25      CTL2    -0.180000       12.0110           0
     15964 MEMB     121      POPC     H5R      HAL2     0.900000E-01   1.00800           0
     15965 MEMB     121      POPC     H5S      HAL2     0.900000E-01   1.00800           0
     15966 MEMB     121      POPC     C26      CTL2    -0.180000       12.0110           0
     15967 MEMB     121      POPC     H6R      HAL2     0.900000E-01   1.00800           0
     15968 MEMB     121      POPC     H6S      HAL2     0.900000E-01   1.00800           0
     15969 MEMB     121      POPC     C27      CTL2    -0.180000       12.0110           0
     15970 MEMB     121      POPC     H7R      HAL2     0.900000E-01   1.00800           0
     15971 MEMB     121      POPC     H7S      HAL2     0.900000E-01   1.00800           0
     15972 MEMB     121      POPC     C28      CTL2    -0.180000       12.0110           0
     15973 MEMB     121      POPC     H8R      HAL2     0.900000E-01   1.00800           0
     15974 MEMB     121      POPC     H8S      HAL2     0.900000E-01   1.00800           0
     15975 MEMB     121      POPC     C29      CEL1    -0.150000       12.0110           0
     15976 MEMB     121      POPC     H91      HEL1     0.150000       1.00800           0
     15977 MEMB     121      POPC     C210     CEL1    -0.150000       12.0110           0
     15978 MEMB     121      POPC     H101     HEL1     0.150000       1.00800           0
     15979 MEMB     121      POPC     C211     CTL2    -0.180000       12.0110           0
     15980 MEMB     121      POPC     H11R     HAL2     0.900000E-01   1.00800           0
     15981 MEMB     121      POPC     H11S     HAL2     0.900000E-01   1.00800           0
     15982 MEMB     121      POPC     C212     CTL2    -0.180000       12.0110           0
     15983 MEMB     121      POPC     H12R     HAL2     0.900000E-01   1.00800           0
     15984 MEMB     121      POPC     H12S     HAL2     0.900000E-01   1.00800           0
     15985 MEMB     121      POPC     C213     CTL2    -0.180000       12.0110           0
     15986 MEMB     121      POPC     H13R     HAL2     0.900000E-01   1.00800           0
     15987 MEMB     121      POPC     H13S     HAL2     0.900000E-01   1.00800           0
     15988 MEMB     121      POPC     C214     CTL2    -0.180000       12.0110           0
     15989 MEMB     121      POPC     H14R     HAL2     0.900000E-01   1.00800           0
     15990 MEMB     121      POPC     H14S     HAL2     0.900000E-01   1.00800           0
     15991 MEMB     121      POPC     C215     CTL2    -0.180000       12.0110           0
     15992 MEMB     121      POPC     H15R     HAL2     0.900000E-01   1.00800           0
     15993 MEMB     121      POPC     H15S     HAL2     0.900000E-01   1.00800           0
     15994 MEMB     121      POPC     C216     CTL2    -0.180000       12.0110           0
     15995 MEMB     121      POPC     H16R     HAL2     0.900000E-01   1.00800           0
     15996 MEMB     121      POPC     H16S     HAL2     0.900000E-01   1.00800           0
     15997 MEMB     121      POPC     C217     CTL2    -0.180000       12.0110           0
     15998 MEMB     121      POPC     H17R     HAL2     0.900000E-01   1.00800           0
     15999 MEMB     121      POPC     H17S     HAL2     0.900000E-01   1.00800           0
     16000 MEMB     121      POPC     C218     CTL3    -0.270000       12.0110           0
     16001 MEMB     121      POPC     H18R     HAL3     0.900000E-01   1.00800           0
     16002 MEMB     121      POPC     H18S     HAL3     0.900000E-01   1.00800           0
     16003 MEMB     121      POPC     H18T     HAL3     0.900000E-01   1.00800           0
     16004 MEMB     121      POPC     C33      CTL2    -0.180000       12.0110           0
     16005 MEMB     121      POPC     H3X      HAL2     0.900000E-01   1.00800           0
     16006 MEMB     121      POPC     H3Y      HAL2     0.900000E-01   1.00800           0
     16007 MEMB     121      POPC     C34      CTL2    -0.180000       12.0110           0
     16008 MEMB     121      POPC     H4X      HAL2     0.900000E-01   1.00800           0
     16009 MEMB     121      POPC     H4Y      HAL2     0.900000E-01   1.00800           0
     16010 MEMB     121      POPC     C35      CTL2    -0.180000       12.0110           0
     16011 MEMB     121      POPC     H5X      HAL2     0.900000E-01   1.00800           0
     16012 MEMB     121      POPC     H5Y      HAL2     0.900000E-01   1.00800           0
     16013 MEMB     121      POPC     C36      CTL2    -0.180000       12.0110           0
     16014 MEMB     121      POPC     H6X      HAL2     0.900000E-01   1.00800           0
     16015 MEMB     121      POPC     H6Y      HAL2     0.900000E-01   1.00800           0
     16016 MEMB     121      POPC     C37      CTL2    -0.180000       12.0110           0
     16017 MEMB     121      POPC     H7X      HAL2     0.900000E-01   1.00800           0
     16018 MEMB     121      POPC     H7Y      HAL2     0.900000E-01   1.00800           0
     16019 MEMB     121      POPC     C38      CTL2    -0.180000       12.0110           0
     16020 MEMB     121      POPC     H8X      HAL2     0.900000E-01   1.00800           0
     16021 MEMB     121      POPC     H8Y      HAL2     0.900000E-01   1.00800           0
     16022 MEMB     121      POPC     C39      CTL2    -0.180000       12.0110           0
     16023 MEMB     121      POPC     H9X      HAL2     0.900000E-01   1.00800           0
     16024 MEMB     121      POPC     H9Y      HAL2     0.900000E-01   1.00800           0
     16025 MEMB     121      POPC     C310     CTL2    -0.180000       12.0110           0
     16026 MEMB     121      POPC     H10X     HAL2     0.900000E-01   1.00800           0
     16027 MEMB     121      POPC     H10Y     HAL2     0.900000E-01   1.00800           0
     16028 MEMB     121      POPC     C311     CTL2    -0.180000       12.0110           0
     16029 MEMB     121      POPC     H11X     HAL2     0.900000E-01   1.00800           0
     16030 MEMB     121      POPC     H11Y     HAL2     0.900000E-01   1.00800           0
     16031 MEMB     121      POPC     C312     CTL2    -0.180000       12.0110           0
     16032 MEMB     121      POPC     H12X     HAL2     0.900000E-01   1.00800           0
     16033 MEMB     121      POPC     H12Y     HAL2     0.900000E-01   1.00800           0
     16034 MEMB     121      POPC     C313     CTL2    -0.180000       12.0110           0
     16035 MEMB     121      POPC     H13X     HAL2     0.900000E-01   1.00800           0
     16036 MEMB     121      POPC     H13Y     HAL2     0.900000E-01   1.00800           0
     16037 MEMB     121      POPC     C314     CTL2    -0.180000       12.0110           0
     16038 MEMB     121      POPC     H14X     HAL2     0.900000E-01   1.00800           0
     16039 MEMB     121      POPC     H14Y     HAL2     0.900000E-01   1.00800           0
     16040 MEMB     121      POPC     C315     CTL2    -0.180000       12.0110           0
     16041 MEMB     121      POPC     H15X     HAL2     0.900000E-01   1.00800           0
     16042 MEMB     121      POPC     H15Y     HAL2     0.900000E-01   1.00800           0
     16043 MEMB     121      POPC     C316     CTL3    -0.270000       12.0110           0
     16044 MEMB     121      POPC     H16X     HAL3     0.900000E-01   1.00800           0
     16045 MEMB     121      POPC     H16Y     HAL3     0.900000E-01   1.00800           0
     16046 MEMB     121      POPC     H16Z     HAL3     0.900000E-01   1.00800           0
     16047 MEMB     122      POPC     N        NTL     -0.600000       14.0070           0
     16048 MEMB     122      POPC     C12      CTL2    -0.100000       12.0110           0
     16049 MEMB     122      POPC     H12A     HL       0.250000       1.00800           0
     16050 MEMB     122      POPC     H12B     HL       0.250000       1.00800           0
     16051 MEMB     122      POPC     C13      CTL5    -0.350000       12.0110           0
     16052 MEMB     122      POPC     H13A     HL       0.250000       1.00800           0
     16053 MEMB     122      POPC     H13B     HL       0.250000       1.00800           0
     16054 MEMB     122      POPC     H13C     HL       0.250000       1.00800           0
     16055 MEMB     122      POPC     C14      CTL5    -0.350000       12.0110           0
     16056 MEMB     122      POPC     H14A     HL       0.250000       1.00800           0
     16057 MEMB     122      POPC     H14B     HL       0.250000       1.00800           0
     16058 MEMB     122      POPC     H14C     HL       0.250000       1.00800           0
     16059 MEMB     122      POPC     C15      CTL5    -0.350000       12.0110           0
     16060 MEMB     122      POPC     H15A     HL       0.250000       1.00800           0
     16061 MEMB     122      POPC     H15B     HL       0.250000       1.00800           0
     16062 MEMB     122      POPC     H15C     HL       0.250000       1.00800           0
     16063 MEMB     122      POPC     C11      CTL2    -0.800000E-01   12.0110           0
     16064 MEMB     122      POPC     H11A     HAL2     0.900000E-01   1.00800           0
     16065 MEMB     122      POPC     H11B     HAL2     0.900000E-01   1.00800           0
     16066 MEMB     122      POPC     P        PL        1.50000       30.9740           0
     16067 MEMB     122      POPC     O13      O2L     -0.780000       15.9994           0
     16068 MEMB     122      POPC     O14      O2L     -0.780000       15.9994           0
     16069 MEMB     122      POPC     O12      OSLP    -0.570000       15.9994           0
     16070 MEMB     122      POPC     O11      OSLP    -0.570000       15.9994           0
     16071 MEMB     122      POPC     C1       CTL2    -0.800000E-01   12.0110           0
     16072 MEMB     122      POPC     HA       HAL2     0.900000E-01   1.00800           0
     16073 MEMB     122      POPC     HB       HAL2     0.900000E-01   1.00800           0
     16074 MEMB     122      POPC     C2       CTL1     0.170000       12.0110           0
     16075 MEMB     122      POPC     HS       HAL1     0.900000E-01   1.00800           0
     16076 MEMB     122      POPC     O21      OSL     -0.490000       15.9994           0
     16077 MEMB     122      POPC     C21      CL       0.900000       12.0110           0
     16078 MEMB     122      POPC     O22      OBL     -0.630000       15.9994           0
     16079 MEMB     122      POPC     C22      CTL2    -0.220000       12.0110           0
     16080 MEMB     122      POPC     H2R      HAL2     0.900000E-01   1.00800           0
     16081 MEMB     122      POPC     H2S      HAL2     0.900000E-01   1.00800           0
     16082 MEMB     122      POPC     C3       CTL2     0.800000E-01   12.0110           0
     16083 MEMB     122      POPC     HX       HAL2     0.900000E-01   1.00800           0
     16084 MEMB     122      POPC     HY       HAL2     0.900000E-01   1.00800           0
     16085 MEMB     122      POPC     O31      OSL     -0.490000       15.9994           0
     16086 MEMB     122      POPC     C31      CL       0.900000       12.0110           0
     16087 MEMB     122      POPC     O32      OBL     -0.630000       15.9994           0
     16088 MEMB     122      POPC     C32      CTL2    -0.220000       12.0110           0
     16089 MEMB     122      POPC     H2X      HAL2     0.900000E-01   1.00800           0
     16090 MEMB     122      POPC     H2Y      HAL2     0.900000E-01   1.00800           0
     16091 MEMB     122      POPC     C23      CTL2    -0.180000       12.0110           0
     16092 MEMB     122      POPC     H3R      HAL2     0.900000E-01   1.00800           0
     16093 MEMB     122      POPC     H3S      HAL2     0.900000E-01   1.00800           0
     16094 MEMB     122      POPC     C24      CTL2    -0.180000       12.0110           0
     16095 MEMB     122      POPC     H4R      HAL2     0.900000E-01   1.00800           0
     16096 MEMB     122      POPC     H4S      HAL2     0.900000E-01   1.00800           0
     16097 MEMB     122      POPC     C25      CTL2    -0.180000       12.0110           0
     16098 MEMB     122      POPC     H5R      HAL2     0.900000E-01   1.00800           0
     16099 MEMB     122      POPC     H5S      HAL2     0.900000E-01   1.00800           0
     16100 MEMB     122      POPC     C26      CTL2    -0.180000       12.0110           0
     16101 MEMB     122      POPC     H6R      HAL2     0.900000E-01   1.00800           0
     16102 MEMB     122      POPC     H6S      HAL2     0.900000E-01   1.00800           0
     16103 MEMB     122      POPC     C27      CTL2    -0.180000       12.0110           0
     16104 MEMB     122      POPC     H7R      HAL2     0.900000E-01   1.00800           0
     16105 MEMB     122      POPC     H7S      HAL2     0.900000E-01   1.00800           0
     16106 MEMB     122      POPC     C28      CTL2    -0.180000       12.0110           0
     16107 MEMB     122      POPC     H8R      HAL2     0.900000E-01   1.00800           0
     16108 MEMB     122      POPC     H8S      HAL2     0.900000E-01   1.00800           0
     16109 MEMB     122      POPC     C29      CEL1    -0.150000       12.0110           0
     16110 MEMB     122      POPC     H91      HEL1     0.150000       1.00800           0
     16111 MEMB     122      POPC     C210     CEL1    -0.150000       12.0110           0
     16112 MEMB     122      POPC     H101     HEL1     0.150000       1.00800           0
     16113 MEMB     122      POPC     C211     CTL2    -0.180000       12.0110           0
     16114 MEMB     122      POPC     H11R     HAL2     0.900000E-01   1.00800           0
     16115 MEMB     122      POPC     H11S     HAL2     0.900000E-01   1.00800           0
     16116 MEMB     122      POPC     C212     CTL2    -0.180000       12.0110           0
     16117 MEMB     122      POPC     H12R     HAL2     0.900000E-01   1.00800           0
     16118 MEMB     122      POPC     H12S     HAL2     0.900000E-01   1.00800           0
     16119 MEMB     122      POPC     C213     CTL2    -0.180000       12.0110           0
     16120 MEMB     122      POPC     H13R     HAL2     0.900000E-01   1.00800           0
     16121 MEMB     122      POPC     H13S     HAL2     0.900000E-01   1.00800           0
     16122 MEMB     122      POPC     C214     CTL2    -0.180000       12.0110           0
     16123 MEMB     122      POPC     H14R     HAL2     0.900000E-01   1.00800           0
     16124 MEMB     122      POPC     H14S     HAL2     0.900000E-01   1.00800           0
     16125 MEMB     122      POPC     C215     CTL2    -0.180000       12.0110           0
     16126 MEMB     122      POPC     H15R     HAL2     0.900000E-01   1.00800           0
     16127 MEMB     122      POPC     H15S     HAL2     0.900000E-01   1.00800           0
     16128 MEMB     122      POPC     C216     CTL2    -0.180000       12.0110           0
     16129 MEMB     122      POPC     H16R     HAL2     0.900000E-01   1.00800           0
     16130 MEMB     122      POPC     H16S     HAL2     0.900000E-01   1.00800           0
     16131 MEMB     122      POPC     C217     CTL2    -0.180000       12.0110           0
     16132 MEMB     122      POPC     H17R     HAL2     0.900000E-01   1.00800           0
     16133 MEMB     122      POPC     H17S     HAL2     0.900000E-01   1.00800           0
     16134 MEMB     122      POPC     C218     CTL3    -0.270000       12.0110           0
     16135 MEMB     122      POPC     H18R     HAL3     0.900000E-01   1.00800           0
     16136 MEMB     122      POPC     H18S     HAL3     0.900000E-01   1.00800           0
     16137 MEMB     122      POPC     H18T     HAL3     0.900000E-01   1.00800           0
     16138 MEMB     122      POPC     C33      CTL2    -0.180000       12.0110           0
     16139 MEMB     122      POPC     H3X      HAL2     0.900000E-01   1.00800           0
     16140 MEMB     122      POPC     H3Y      HAL2     0.900000E-01   1.00800           0
     16141 MEMB     122      POPC     C34      CTL2    -0.180000       12.0110           0
     16142 MEMB     122      POPC     H4X      HAL2     0.900000E-01   1.00800           0
     16143 MEMB     122      POPC     H4Y      HAL2     0.900000E-01   1.00800           0
     16144 MEMB     122      POPC     C35      CTL2    -0.180000       12.0110           0
     16145 MEMB     122      POPC     H5X      HAL2     0.900000E-01   1.00800           0
     16146 MEMB     122      POPC     H5Y      HAL2     0.900000E-01   1.00800           0
     16147 MEMB     122      POPC     C36      CTL2    -0.180000       12.0110           0
     16148 MEMB     122      POPC     H6X      HAL2     0.900000E-01   1.00800           0
     16149 MEMB     122      POPC     H6Y      HAL2     0.900000E-01   1.00800           0
     16150 MEMB     122      POPC     C37      CTL2    -0.180000       12.0110           0
     16151 MEMB     122      POPC     H7X      HAL2     0.900000E-01   1.00800           0
     16152 MEMB     122      POPC     H7Y      HAL2     0.900000E-01   1.00800           0
     16153 MEMB     122      POPC     C38      CTL2    -0.180000       12.0110           0
     16154 MEMB     122      POPC     H8X      HAL2     0.900000E-01   1.00800           0
     16155 MEMB     122      POPC     H8Y      HAL2     0.900000E-01   1.00800           0
     16156 MEMB     122      POPC     C39      CTL2    -0.180000       12.0110           0
     16157 MEMB     122      POPC     H9X      HAL2     0.900000E-01   1.00800           0
     16158 MEMB     122      POPC     H9Y      HAL2     0.900000E-01   1.00800           0
     16159 MEMB     122      POPC     C310     CTL2    -0.180000       12.0110           0
     16160 MEMB     122      POPC     H10X     HAL2     0.900000E-01   1.00800           0
     16161 MEMB     122      POPC     H10Y     HAL2     0.900000E-01   1.00800           0
     16162 MEMB     122      POPC     C311     CTL2    -0.180000       12.0110           0
     16163 MEMB     122      POPC     H11X     HAL2     0.900000E-01   1.00800           0
     16164 MEMB     122      POPC     H11Y     HAL2     0.900000E-01   1.00800           0
     16165 MEMB     122      POPC     C312     CTL2    -0.180000       12.0110           0
     16166 MEMB     122      POPC     H12X     HAL2     0.900000E-01   1.00800           0
     16167 MEMB     122      POPC     H12Y     HAL2     0.900000E-01   1.00800           0
     16168 MEMB     122      POPC     C313     CTL2    -0.180000       12.0110           0
     16169 MEMB     122      POPC     H13X     HAL2     0.900000E-01   1.00800           0
     16170 MEMB     122      POPC     H13Y     HAL2     0.900000E-01   1.00800           0
     16171 MEMB     122      POPC     C314     CTL2    -0.180000       12.0110           0
     16172 MEMB     122      POPC     H14X     HAL2     0.900000E-01   1.00800           0
     16173 MEMB     122      POPC     H14Y     HAL2     0.900000E-01   1.00800           0
     16174 MEMB     122      POPC     C315     CTL2    -0.180000       12.0110           0
     16175 MEMB     122      POPC     H15X     HAL2     0.900000E-01   1.00800           0
     16176 MEMB     122      POPC     H15Y     HAL2     0.900000E-01   1.00800           0
     16177 MEMB     122      POPC     C316     CTL3    -0.270000       12.0110           0
     16178 MEMB     122      POPC     H16X     HAL3     0.900000E-01   1.00800           0
     16179 MEMB     122      POPC     H16Y     HAL3     0.900000E-01   1.00800           0
     16180 MEMB     122      POPC     H16Z     HAL3     0.900000E-01   1.00800           0
     16181 MEMB     123      POPS     N        NH3L    -0.300000       14.0070           0
     16182 MEMB     123      POPS     HN1      HCL      0.330000       1.00800           0
     16183 MEMB     123      POPS     HN2      HCL      0.330000       1.00800           0
     16184 MEMB     123      POPS     HN3      HCL      0.330000       1.00800           0
     16185 MEMB     123      POPS     C12      CTL1     0.210000       12.0110           0
     16186 MEMB     123      POPS     H12A     HBL      0.100000       1.00800           0
     16187 MEMB     123      POPS     C13      CCL      0.340000       12.0110           0
     16188 MEMB     123      POPS     O13A     OCL     -0.670000       15.9994           0
     16189 MEMB     123      POPS     O13B     OCL     -0.670000       15.9994           0
     16190 MEMB     123      POPS     C11      CTL2    -0.800000E-01   12.0110           0
     16191 MEMB     123      POPS     H11A     HAL2     0.900000E-01   1.00800           0
     16192 MEMB     123      POPS     H11B     HAL2     0.900000E-01   1.00800           0
     16193 MEMB     123      POPS     P        PL        1.50000       30.9740           0
     16194 MEMB     123      POPS     O13      O2L     -0.780000       15.9994           0
     16195 MEMB     123      POPS     O14      O2L     -0.780000       15.9994           0
     16196 MEMB     123      POPS     O12      OSLP    -0.570000       15.9994           0
     16197 MEMB     123      POPS     O11      OSLP    -0.570000       15.9994           0
     16198 MEMB     123      POPS     C1       CTL2    -0.800000E-01   12.0110           0
     16199 MEMB     123      POPS     HA       HAL2     0.900000E-01   1.00800           0
     16200 MEMB     123      POPS     HB       HAL2     0.900000E-01   1.00800           0
     16201 MEMB     123      POPS     C2       CTL1     0.170000       12.0110           0
     16202 MEMB     123      POPS     HS       HAL1     0.900000E-01   1.00800           0
     16203 MEMB     123      POPS     O21      OSL     -0.490000       15.9994           0
     16204 MEMB     123      POPS     C21      CL       0.900000       12.0110           0
     16205 MEMB     123      POPS     O22      OBL     -0.630000       15.9994           0
     16206 MEMB     123      POPS     C22      CTL2    -0.220000       12.0110           0
     16207 MEMB     123      POPS     H2R      HAL2     0.900000E-01   1.00800           0
     16208 MEMB     123      POPS     H2S      HAL2     0.900000E-01   1.00800           0
     16209 MEMB     123      POPS     C3       CTL2     0.800000E-01   12.0110           0
     16210 MEMB     123      POPS     HX       HAL2     0.900000E-01   1.00800           0
     16211 MEMB     123      POPS     HY       HAL2     0.900000E-01   1.00800           0
     16212 MEMB     123      POPS     O31      OSL     -0.490000       15.9994           0
     16213 MEMB     123      POPS     C31      CL       0.900000       12.0110           0
     16214 MEMB     123      POPS     O32      OBL     -0.630000       15.9994           0
     16215 MEMB     123      POPS     C32      CTL2    -0.220000       12.0110           0
     16216 MEMB     123      POPS     H2X      HAL2     0.900000E-01   1.00800           0
     16217 MEMB     123      POPS     H2Y      HAL2     0.900000E-01   1.00800           0
     16218 MEMB     123      POPS     C23      CTL2    -0.180000       12.0110           0
     16219 MEMB     123      POPS     H3R      HAL2     0.900000E-01   1.00800           0
     16220 MEMB     123      POPS     H3S      HAL2     0.900000E-01   1.00800           0
     16221 MEMB     123      POPS     C24      CTL2    -0.180000       12.0110           0
     16222 MEMB     123      POPS     H4R      HAL2     0.900000E-01   1.00800           0
     16223 MEMB     123      POPS     H4S      HAL2     0.900000E-01   1.00800           0
     16224 MEMB     123      POPS     C25      CTL2    -0.180000       12.0110           0
     16225 MEMB     123      POPS     H5R      HAL2     0.900000E-01   1.00800           0
     16226 MEMB     123      POPS     H5S      HAL2     0.900000E-01   1.00800           0
     16227 MEMB     123      POPS     C26      CTL2    -0.180000       12.0110           0
     16228 MEMB     123      POPS     H6R      HAL2     0.900000E-01   1.00800           0
     16229 MEMB     123      POPS     H6S      HAL2     0.900000E-01   1.00800           0
     16230 MEMB     123      POPS     C27      CTL2    -0.180000       12.0110           0
     16231 MEMB     123      POPS     H7R      HAL2     0.900000E-01   1.00800           0
     16232 MEMB     123      POPS     H7S      HAL2     0.900000E-01   1.00800           0
     16233 MEMB     123      POPS     C28      CTL2    -0.180000       12.0110           0
     16234 MEMB     123      POPS     H8R      HAL2     0.900000E-01   1.00800           0
     16235 MEMB     123      POPS     H8S      HAL2     0.900000E-01   1.00800           0
     16236 MEMB     123      POPS     C29      CEL1    -0.150000       12.0110           0
     16237 MEMB     123      POPS     H91      HEL1     0.150000       1.00800           0
     16238 MEMB     123      POPS     C210     CEL1    -0.150000       12.0110           0
     16239 MEMB     123      POPS     H101     HEL1     0.150000       1.00800           0
     16240 MEMB     123      POPS     C211     CTL2    -0.180000       12.0110           0
     16241 MEMB     123      POPS     H11R     HAL2     0.900000E-01   1.00800           0
     16242 MEMB     123      POPS     H11S     HAL2     0.900000E-01   1.00800           0
     16243 MEMB     123      POPS     C212     CTL2    -0.180000       12.0110           0
     16244 MEMB     123      POPS     H12R     HAL2     0.900000E-01   1.00800           0
     16245 MEMB     123      POPS     H12S     HAL2     0.900000E-01   1.00800           0
     16246 MEMB     123      POPS     C213     CTL2    -0.180000       12.0110           0
     16247 MEMB     123      POPS     H13R     HAL2     0.900000E-01   1.00800           0
     16248 MEMB     123      POPS     H13S     HAL2     0.900000E-01   1.00800           0
     16249 MEMB     123      POPS     C214     CTL2    -0.180000       12.0110           0
     16250 MEMB     123      POPS     H14R     HAL2     0.900000E-01   1.00800           0
     16251 MEMB     123      POPS     H14S     HAL2     0.900000E-01   1.00800           0
     16252 MEMB     123      POPS     C215     CTL2    -0.180000       12.0110           0
     16253 MEMB     123      POPS     H15R     HAL2     0.900000E-01   1.00800           0
     16254 MEMB     123      POPS     H15S     HAL2     0.900000E-01   1.00800           0
     16255 MEMB     123      POPS     C216     CTL2    -0.180000       12.0110           0
     16256 MEMB     123      POPS     H16R     HAL2     0.900000E-01   1.00800           0
     16257 MEMB     123      POPS     H16S     HAL2     0.900000E-01   1.00800           0
     16258 MEMB     123      POPS     C217     CTL2    -0.180000       12.0110           0
     16259 MEMB     123      POPS     H17R     HAL2     0.900000E-01   1.00800           0
     16260 MEMB     123      POPS     H17S     HAL2     0.900000E-01   1.00800           0
     16261 MEMB     123      POPS     C218     CTL3    -0.270000       12.0110           0
     16262 MEMB     123      POPS     H18R     HAL3     0.900000E-01   1.00800           0
     16263 MEMB     123      POPS     H18S     HAL3     0.900000E-01   1.00800           0
     16264 MEMB     123      POPS     H18T     HAL3     0.900000E-01   1.00800           0
     16265 MEMB     123      POPS     C33      CTL2    -0.180000       12.0110           0
     16266 MEMB     123      POPS     H3X      HAL2     0.900000E-01   1.00800           0
     16267 MEMB     123      POPS     H3Y      HAL2     0.900000E-01   1.00800           0
     16268 MEMB     123      POPS     C34      CTL2    -0.180000       12.0110           0
     16269 MEMB     123      POPS     H4X      HAL2     0.900000E-01   1.00800           0
     16270 MEMB     123      POPS     H4Y      HAL2     0.900000E-01   1.00800           0
     16271 MEMB     123      POPS     C35      CTL2    -0.180000       12.0110           0
     16272 MEMB     123      POPS     H5X      HAL2     0.900000E-01   1.00800           0
     16273 MEMB     123      POPS     H5Y      HAL2     0.900000E-01   1.00800           0
     16274 MEMB     123      POPS     C36      CTL2    -0.180000       12.0110           0
     16275 MEMB     123      POPS     H6X      HAL2     0.900000E-01   1.00800           0
     16276 MEMB     123      POPS     H6Y      HAL2     0.900000E-01   1.00800           0
     16277 MEMB     123      POPS     C37      CTL2    -0.180000       12.0110           0
     16278 MEMB     123      POPS     H7X      HAL2     0.900000E-01   1.00800           0
     16279 MEMB     123      POPS     H7Y      HAL2     0.900000E-01   1.00800           0
     16280 MEMB     123      POPS     C38      CTL2    -0.180000       12.0110           0
     16281 MEMB     123      POPS     H8X      HAL2     0.900000E-01   1.00800           0
     16282 MEMB     123      POPS     H8Y      HAL2     0.900000E-01   1.00800           0
     16283 MEMB     123      POPS     C39      CTL2    -0.180000       12.0110           0
     16284 MEMB     123      POPS     H9X      HAL2     0.900000E-01   1.00800           0
     16285 MEMB     123      POPS     H9Y      HAL2     0.900000E-01   1.00800           0
     16286 MEMB     123      POPS     C310     CTL2    -0.180000       12.0110           0
     16287 MEMB     123      POPS     H10X     HAL2     0.900000E-01   1.00800           0
     16288 MEMB     123      POPS     H10Y     HAL2     0.900000E-01   1.00800           0
     16289 MEMB     123      POPS     C311     CTL2    -0.180000       12.0110           0
     16290 MEMB     123      POPS     H11X     HAL2     0.900000E-01   1.00800           0
     16291 MEMB     123      POPS     H11Y     HAL2     0.900000E-01   1.00800           0
     16292 MEMB     123      POPS     C312     CTL2    -0.180000       12.0110           0
     16293 MEMB     123      POPS     H12X     HAL2     0.900000E-01   1.00800           0
     16294 MEMB     123      POPS     H12Y     HAL2     0.900000E-01   1.00800           0
     16295 MEMB     123      POPS     C313     CTL2    -0.180000       12.0110           0
     16296 MEMB     123      POPS     H13X     HAL2     0.900000E-01   1.00800           0
     16297 MEMB     123      POPS     H13Y     HAL2     0.900000E-01   1.00800           0
     16298 MEMB     123      POPS     C314     CTL2    -0.180000       12.0110           0
     16299 MEMB     123      POPS     H14X     HAL2     0.900000E-01   1.00800           0
     16300 MEMB     123      POPS     H14Y     HAL2     0.900000E-01   1.00800           0
     16301 MEMB     123      POPS     C315     CTL2    -0.180000       12.0110           0
     16302 MEMB     123      POPS     H15X     HAL2     0.900000E-01   1.00800           0
     16303 MEMB     123      POPS     H15Y     HAL2     0.900000E-01   1.00800           0
     16304 MEMB     123      POPS     C316     CTL3    -0.270000       12.0110           0
     16305 MEMB     123      POPS     H16X     HAL3     0.900000E-01   1.00800           0
     16306 MEMB     123      POPS     H16Y     HAL3     0.900000E-01   1.00800           0
     16307 MEMB     123      POPS     H16Z     HAL3     0.900000E-01   1.00800           0
     16308 MEMB     124      POPC     N        NTL     -0.600000       14.0070           0
     16309 MEMB     124      POPC     C12      CTL2    -0.100000       12.0110           0
     16310 MEMB     124      POPC     H12A     HL       0.250000       1.00800           0
     16311 MEMB     124      POPC     H12B     HL       0.250000       1.00800           0
     16312 MEMB     124      POPC     C13      CTL5    -0.350000       12.0110           0
     16313 MEMB     124      POPC     H13A     HL       0.250000       1.00800           0
     16314 MEMB     124      POPC     H13B     HL       0.250000       1.00800           0
     16315 MEMB     124      POPC     H13C     HL       0.250000       1.00800           0
     16316 MEMB     124      POPC     C14      CTL5    -0.350000       12.0110           0
     16317 MEMB     124      POPC     H14A     HL       0.250000       1.00800           0
     16318 MEMB     124      POPC     H14B     HL       0.250000       1.00800           0
     16319 MEMB     124      POPC     H14C     HL       0.250000       1.00800           0
     16320 MEMB     124      POPC     C15      CTL5    -0.350000       12.0110           0
     16321 MEMB     124      POPC     H15A     HL       0.250000       1.00800           0
     16322 MEMB     124      POPC     H15B     HL       0.250000       1.00800           0
     16323 MEMB     124      POPC     H15C     HL       0.250000       1.00800           0
     16324 MEMB     124      POPC     C11      CTL2    -0.800000E-01   12.0110           0
     16325 MEMB     124      POPC     H11A     HAL2     0.900000E-01   1.00800           0
     16326 MEMB     124      POPC     H11B     HAL2     0.900000E-01   1.00800           0
     16327 MEMB     124      POPC     P        PL        1.50000       30.9740           0
     16328 MEMB     124      POPC     O13      O2L     -0.780000       15.9994           0
     16329 MEMB     124      POPC     O14      O2L     -0.780000       15.9994           0
     16330 MEMB     124      POPC     O12      OSLP    -0.570000       15.9994           0
     16331 MEMB     124      POPC     O11      OSLP    -0.570000       15.9994           0
     16332 MEMB     124      POPC     C1       CTL2    -0.800000E-01   12.0110           0
     16333 MEMB     124      POPC     HA       HAL2     0.900000E-01   1.00800           0
     16334 MEMB     124      POPC     HB       HAL2     0.900000E-01   1.00800           0
     16335 MEMB     124      POPC     C2       CTL1     0.170000       12.0110           0
     16336 MEMB     124      POPC     HS       HAL1     0.900000E-01   1.00800           0
     16337 MEMB     124      POPC     O21      OSL     -0.490000       15.9994           0
     16338 MEMB     124      POPC     C21      CL       0.900000       12.0110           0
     16339 MEMB     124      POPC     O22      OBL     -0.630000       15.9994           0
     16340 MEMB     124      POPC     C22      CTL2    -0.220000       12.0110           0
     16341 MEMB     124      POPC     H2R      HAL2     0.900000E-01   1.00800           0
     16342 MEMB     124      POPC     H2S      HAL2     0.900000E-01   1.00800           0
     16343 MEMB     124      POPC     C3       CTL2     0.800000E-01   12.0110           0
     16344 MEMB     124      POPC     HX       HAL2     0.900000E-01   1.00800           0
     16345 MEMB     124      POPC     HY       HAL2     0.900000E-01   1.00800           0
     16346 MEMB     124      POPC     O31      OSL     -0.490000       15.9994           0
     16347 MEMB     124      POPC     C31      CL       0.900000       12.0110           0
     16348 MEMB     124      POPC     O32      OBL     -0.630000       15.9994           0
     16349 MEMB     124      POPC     C32      CTL2    -0.220000       12.0110           0
     16350 MEMB     124      POPC     H2X      HAL2     0.900000E-01   1.00800           0
     16351 MEMB     124      POPC     H2Y      HAL2     0.900000E-01   1.00800           0
     16352 MEMB     124      POPC     C23      CTL2    -0.180000       12.0110           0
     16353 MEMB     124      POPC     H3R      HAL2     0.900000E-01   1.00800           0
     16354 MEMB     124      POPC     H3S      HAL2     0.900000E-01   1.00800           0
     16355 MEMB     124      POPC     C24      CTL2    -0.180000       12.0110           0
     16356 MEMB     124      POPC     H4R      HAL2     0.900000E-01   1.00800           0
     16357 MEMB     124      POPC     H4S      HAL2     0.900000E-01   1.00800           0
     16358 MEMB     124      POPC     C25      CTL2    -0.180000       12.0110           0
     16359 MEMB     124      POPC     H5R      HAL2     0.900000E-01   1.00800           0
     16360 MEMB     124      POPC     H5S      HAL2     0.900000E-01   1.00800           0
     16361 MEMB     124      POPC     C26      CTL2    -0.180000       12.0110           0
     16362 MEMB     124      POPC     H6R      HAL2     0.900000E-01   1.00800           0
     16363 MEMB     124      POPC     H6S      HAL2     0.900000E-01   1.00800           0
     16364 MEMB     124      POPC     C27      CTL2    -0.180000       12.0110           0
     16365 MEMB     124      POPC     H7R      HAL2     0.900000E-01   1.00800           0
     16366 MEMB     124      POPC     H7S      HAL2     0.900000E-01   1.00800           0
     16367 MEMB     124      POPC     C28      CTL2    -0.180000       12.0110           0
     16368 MEMB     124      POPC     H8R      HAL2     0.900000E-01   1.00800           0
     16369 MEMB     124      POPC     H8S      HAL2     0.900000E-01   1.00800           0
     16370 MEMB     124      POPC     C29      CEL1    -0.150000       12.0110           0
     16371 MEMB     124      POPC     H91      HEL1     0.150000       1.00800           0
     16372 MEMB     124      POPC     C210     CEL1    -0.150000       12.0110           0
     16373 MEMB     124      POPC     H101     HEL1     0.150000       1.00800           0
     16374 MEMB     124      POPC     C211     CTL2    -0.180000       12.0110           0
     16375 MEMB     124      POPC     H11R     HAL2     0.900000E-01   1.00800           0
     16376 MEMB     124      POPC     H11S     HAL2     0.900000E-01   1.00800           0
     16377 MEMB     124      POPC     C212     CTL2    -0.180000       12.0110           0
     16378 MEMB     124      POPC     H12R     HAL2     0.900000E-01   1.00800           0
     16379 MEMB     124      POPC     H12S     HAL2     0.900000E-01   1.00800           0
     16380 MEMB     124      POPC     C213     CTL2    -0.180000       12.0110           0
     16381 MEMB     124      POPC     H13R     HAL2     0.900000E-01   1.00800           0
     16382 MEMB     124      POPC     H13S     HAL2     0.900000E-01   1.00800           0
     16383 MEMB     124      POPC     C214     CTL2    -0.180000       12.0110           0
     16384 MEMB     124      POPC     H14R     HAL2     0.900000E-01   1.00800           0
     16385 MEMB     124      POPC     H14S     HAL2     0.900000E-01   1.00800           0
     16386 MEMB     124      POPC     C215     CTL2    -0.180000       12.0110           0
     16387 MEMB     124      POPC     H15R     HAL2     0.900000E-01   1.00800           0
     16388 MEMB     124      POPC     H15S     HAL2     0.900000E-01   1.00800           0
     16389 MEMB     124      POPC     C216     CTL2    -0.180000       12.0110           0
     16390 MEMB     124      POPC     H16R     HAL2     0.900000E-01   1.00800           0
     16391 MEMB     124      POPC     H16S     HAL2     0.900000E-01   1.00800           0
     16392 MEMB     124      POPC     C217     CTL2    -0.180000       12.0110           0
     16393 MEMB     124      POPC     H17R     HAL2     0.900000E-01   1.00800           0
     16394 MEMB     124      POPC     H17S     HAL2     0.900000E-01   1.00800           0
     16395 MEMB     124      POPC     C218     CTL3    -0.270000       12.0110           0
     16396 MEMB     124      POPC     H18R     HAL3     0.900000E-01   1.00800           0
     16397 MEMB     124      POPC     H18S     HAL3     0.900000E-01   1.00800           0
     16398 MEMB     124      POPC     H18T     HAL3     0.900000E-01   1.00800           0
     16399 MEMB     124      POPC     C33      CTL2    -0.180000       12.0110           0
     16400 MEMB     124      POPC     H3X      HAL2     0.900000E-01   1.00800           0
     16401 MEMB     124      POPC     H3Y      HAL2     0.900000E-01   1.00800           0
     16402 MEMB     124      POPC     C34      CTL2    -0.180000       12.0110           0
     16403 MEMB     124      POPC     H4X      HAL2     0.900000E-01   1.00800           0
     16404 MEMB     124      POPC     H4Y      HAL2     0.900000E-01   1.00800           0
     16405 MEMB     124      POPC     C35      CTL2    -0.180000       12.0110           0
     16406 MEMB     124      POPC     H5X      HAL2     0.900000E-01   1.00800           0
     16407 MEMB     124      POPC     H5Y      HAL2     0.900000E-01   1.00800           0
     16408 MEMB     124      POPC     C36      CTL2    -0.180000       12.0110           0
     16409 MEMB     124      POPC     H6X      HAL2     0.900000E-01   1.00800           0
     16410 MEMB     124      POPC     H6Y      HAL2     0.900000E-01   1.00800           0
     16411 MEMB     124      POPC     C37      CTL2    -0.180000       12.0110           0
     16412 MEMB     124      POPC     H7X      HAL2     0.900000E-01   1.00800           0
     16413 MEMB     124      POPC     H7Y      HAL2     0.900000E-01   1.00800           0
     16414 MEMB     124      POPC     C38      CTL2    -0.180000       12.0110           0
     16415 MEMB     124      POPC     H8X      HAL2     0.900000E-01   1.00800           0
     16416 MEMB     124      POPC     H8Y      HAL2     0.900000E-01   1.00800           0
     16417 MEMB     124      POPC     C39      CTL2    -0.180000       12.0110           0
     16418 MEMB     124      POPC     H9X      HAL2     0.900000E-01   1.00800           0
     16419 MEMB     124      POPC     H9Y      HAL2     0.900000E-01   1.00800           0
     16420 MEMB     124      POPC     C310     CTL2    -0.180000       12.0110           0
     16421 MEMB     124      POPC     H10X     HAL2     0.900000E-01   1.00800           0
     16422 MEMB     124      POPC     H10Y     HAL2     0.900000E-01   1.00800           0
     16423 MEMB     124      POPC     C311     CTL2    -0.180000       12.0110           0
     16424 MEMB     124      POPC     H11X     HAL2     0.900000E-01   1.00800           0
     16425 MEMB     124      POPC     H11Y     HAL2     0.900000E-01   1.00800           0
     16426 MEMB     124      POPC     C312     CTL2    -0.180000       12.0110           0
     16427 MEMB     124      POPC     H12X     HAL2     0.900000E-01   1.00800           0
     16428 MEMB     124      POPC     H12Y     HAL2     0.900000E-01   1.00800           0
     16429 MEMB     124      POPC     C313     CTL2    -0.180000       12.0110           0
     16430 MEMB     124      POPC     H13X     HAL2     0.900000E-01   1.00800           0
     16431 MEMB     124      POPC     H13Y     HAL2     0.900000E-01   1.00800           0
     16432 MEMB     124      POPC     C314     CTL2    -0.180000       12.0110           0
     16433 MEMB     124      POPC     H14X     HAL2     0.900000E-01   1.00800           0
     16434 MEMB     124      POPC     H14Y     HAL2     0.900000E-01   1.00800           0
     16435 MEMB     124      POPC     C315     CTL2    -0.180000       12.0110           0
     16436 MEMB     124      POPC     H15X     HAL2     0.900000E-01   1.00800           0
     16437 MEMB     124      POPC     H15Y     HAL2     0.900000E-01   1.00800           0
     16438 MEMB     124      POPC     C316     CTL3    -0.270000       12.0110           0
     16439 MEMB     124      POPC     H16X     HAL3     0.900000E-01   1.00800           0
     16440 MEMB     124      POPC     H16Y     HAL3     0.900000E-01   1.00800           0
     16441 MEMB     124      POPC     H16Z     HAL3     0.900000E-01   1.00800           0
     16442 MEMB     125      POPC     N        NTL     -0.600000       14.0070           0
     16443 MEMB     125      POPC     C12      CTL2    -0.100000       12.0110           0
     16444 MEMB     125      POPC     H12A     HL       0.250000       1.00800           0
     16445 MEMB     125      POPC     H12B     HL       0.250000       1.00800           0
     16446 MEMB     125      POPC     C13      CTL5    -0.350000       12.0110           0
     16447 MEMB     125      POPC     H13A     HL       0.250000       1.00800           0
     16448 MEMB     125      POPC     H13B     HL       0.250000       1.00800           0
     16449 MEMB     125      POPC     H13C     HL       0.250000       1.00800           0
     16450 MEMB     125      POPC     C14      CTL5    -0.350000       12.0110           0
     16451 MEMB     125      POPC     H14A     HL       0.250000       1.00800           0
     16452 MEMB     125      POPC     H14B     HL       0.250000       1.00800           0
     16453 MEMB     125      POPC     H14C     HL       0.250000       1.00800           0
     16454 MEMB     125      POPC     C15      CTL5    -0.350000       12.0110           0
     16455 MEMB     125      POPC     H15A     HL       0.250000       1.00800           0
     16456 MEMB     125      POPC     H15B     HL       0.250000       1.00800           0
     16457 MEMB     125      POPC     H15C     HL       0.250000       1.00800           0
     16458 MEMB     125      POPC     C11      CTL2    -0.800000E-01   12.0110           0
     16459 MEMB     125      POPC     H11A     HAL2     0.900000E-01   1.00800           0
     16460 MEMB     125      POPC     H11B     HAL2     0.900000E-01   1.00800           0
     16461 MEMB     125      POPC     P        PL        1.50000       30.9740           0
     16462 MEMB     125      POPC     O13      O2L     -0.780000       15.9994           0
     16463 MEMB     125      POPC     O14      O2L     -0.780000       15.9994           0
     16464 MEMB     125      POPC     O12      OSLP    -0.570000       15.9994           0
     16465 MEMB     125      POPC     O11      OSLP    -0.570000       15.9994           0
     16466 MEMB     125      POPC     C1       CTL2    -0.800000E-01   12.0110           0
     16467 MEMB     125      POPC     HA       HAL2     0.900000E-01   1.00800           0
     16468 MEMB     125      POPC     HB       HAL2     0.900000E-01   1.00800           0
     16469 MEMB     125      POPC     C2       CTL1     0.170000       12.0110           0
     16470 MEMB     125      POPC     HS       HAL1     0.900000E-01   1.00800           0
     16471 MEMB     125      POPC     O21      OSL     -0.490000       15.9994           0
     16472 MEMB     125      POPC     C21      CL       0.900000       12.0110           0
     16473 MEMB     125      POPC     O22      OBL     -0.630000       15.9994           0
     16474 MEMB     125      POPC     C22      CTL2    -0.220000       12.0110           0
     16475 MEMB     125      POPC     H2R      HAL2     0.900000E-01   1.00800           0
     16476 MEMB     125      POPC     H2S      HAL2     0.900000E-01   1.00800           0
     16477 MEMB     125      POPC     C3       CTL2     0.800000E-01   12.0110           0
     16478 MEMB     125      POPC     HX       HAL2     0.900000E-01   1.00800           0
     16479 MEMB     125      POPC     HY       HAL2     0.900000E-01   1.00800           0
     16480 MEMB     125      POPC     O31      OSL     -0.490000       15.9994           0
     16481 MEMB     125      POPC     C31      CL       0.900000       12.0110           0
     16482 MEMB     125      POPC     O32      OBL     -0.630000       15.9994           0
     16483 MEMB     125      POPC     C32      CTL2    -0.220000       12.0110           0
     16484 MEMB     125      POPC     H2X      HAL2     0.900000E-01   1.00800           0
     16485 MEMB     125      POPC     H2Y      HAL2     0.900000E-01   1.00800           0
     16486 MEMB     125      POPC     C23      CTL2    -0.180000       12.0110           0
     16487 MEMB     125      POPC     H3R      HAL2     0.900000E-01   1.00800           0
     16488 MEMB     125      POPC     H3S      HAL2     0.900000E-01   1.00800           0
     16489 MEMB     125      POPC     C24      CTL2    -0.180000       12.0110           0
     16490 MEMB     125      POPC     H4R      HAL2     0.900000E-01   1.00800           0
     16491 MEMB     125      POPC     H4S      HAL2     0.900000E-01   1.00800           0
     16492 MEMB     125      POPC     C25      CTL2    -0.180000       12.0110           0
     16493 MEMB     125      POPC     H5R      HAL2     0.900000E-01   1.00800           0
     16494 MEMB     125      POPC     H5S      HAL2     0.900000E-01   1.00800           0
     16495 MEMB     125      POPC     C26      CTL2    -0.180000       12.0110           0
     16496 MEMB     125      POPC     H6R      HAL2     0.900000E-01   1.00800           0
     16497 MEMB     125      POPC     H6S      HAL2     0.900000E-01   1.00800           0
     16498 MEMB     125      POPC     C27      CTL2    -0.180000       12.0110           0
     16499 MEMB     125      POPC     H7R      HAL2     0.900000E-01   1.00800           0
     16500 MEMB     125      POPC     H7S      HAL2     0.900000E-01   1.00800           0
     16501 MEMB     125      POPC     C28      CTL2    -0.180000       12.0110           0
     16502 MEMB     125      POPC     H8R      HAL2     0.900000E-01   1.00800           0
     16503 MEMB     125      POPC     H8S      HAL2     0.900000E-01   1.00800           0
     16504 MEMB     125      POPC     C29      CEL1    -0.150000       12.0110           0
     16505 MEMB     125      POPC     H91      HEL1     0.150000       1.00800           0
     16506 MEMB     125      POPC     C210     CEL1    -0.150000       12.0110           0
     16507 MEMB     125      POPC     H101     HEL1     0.150000       1.00800           0
     16508 MEMB     125      POPC     C211     CTL2    -0.180000       12.0110           0
     16509 MEMB     125      POPC     H11R     HAL2     0.900000E-01   1.00800           0
     16510 MEMB     125      POPC     H11S     HAL2     0.900000E-01   1.00800           0
     16511 MEMB     125      POPC     C212     CTL2    -0.180000       12.0110           0
     16512 MEMB     125      POPC     H12R     HAL2     0.900000E-01   1.00800           0
     16513 MEMB     125      POPC     H12S     HAL2     0.900000E-01   1.00800           0
     16514 MEMB     125      POPC     C213     CTL2    -0.180000       12.0110           0
     16515 MEMB     125      POPC     H13R     HAL2     0.900000E-01   1.00800           0
     16516 MEMB     125      POPC     H13S     HAL2     0.900000E-01   1.00800           0
     16517 MEMB     125      POPC     C214     CTL2    -0.180000       12.0110           0
     16518 MEMB     125      POPC     H14R     HAL2     0.900000E-01   1.00800           0
     16519 MEMB     125      POPC     H14S     HAL2     0.900000E-01   1.00800           0
     16520 MEMB     125      POPC     C215     CTL2    -0.180000       12.0110           0
     16521 MEMB     125      POPC     H15R     HAL2     0.900000E-01   1.00800           0
     16522 MEMB     125      POPC     H15S     HAL2     0.900000E-01   1.00800           0
     16523 MEMB     125      POPC     C216     CTL2    -0.180000       12.0110           0
     16524 MEMB     125      POPC     H16R     HAL2     0.900000E-01   1.00800           0
     16525 MEMB     125      POPC     H16S     HAL2     0.900000E-01   1.00800           0
     16526 MEMB     125      POPC     C217     CTL2    -0.180000       12.0110           0
     16527 MEMB     125      POPC     H17R     HAL2     0.900000E-01   1.00800           0
     16528 MEMB     125      POPC     H17S     HAL2     0.900000E-01   1.00800           0
     16529 MEMB     125      POPC     C218     CTL3    -0.270000       12.0110           0
     16530 MEMB     125      POPC     H18R     HAL3     0.900000E-01   1.00800           0
     16531 MEMB     125      POPC     H18S     HAL3     0.900000E-01   1.00800           0
     16532 MEMB     125      POPC     H18T     HAL3     0.900000E-01   1.00800           0
     16533 MEMB     125      POPC     C33      CTL2    -0.180000       12.0110           0
     16534 MEMB     125      POPC     H3X      HAL2     0.900000E-01   1.00800           0
     16535 MEMB     125      POPC     H3Y      HAL2     0.900000E-01   1.00800           0
     16536 MEMB     125      POPC     C34      CTL2    -0.180000       12.0110           0
     16537 MEMB     125      POPC     H4X      HAL2     0.900000E-01   1.00800           0
     16538 MEMB     125      POPC     H4Y      HAL2     0.900000E-01   1.00800           0
     16539 MEMB     125      POPC     C35      CTL2    -0.180000       12.0110           0
     16540 MEMB     125      POPC     H5X      HAL2     0.900000E-01   1.00800           0
     16541 MEMB     125      POPC     H5Y      HAL2     0.900000E-01   1.00800           0
     16542 MEMB     125      POPC     C36      CTL2    -0.180000       12.0110           0
     16543 MEMB     125      POPC     H6X      HAL2     0.900000E-01   1.00800           0
     16544 MEMB     125      POPC     H6Y      HAL2     0.900000E-01   1.00800           0
     16545 MEMB     125      POPC     C37      CTL2    -0.180000       12.0110           0
     16546 MEMB     125      POPC     H7X      HAL2     0.900000E-01   1.00800           0
     16547 MEMB     125      POPC     H7Y      HAL2     0.900000E-01   1.00800           0
     16548 MEMB     125      POPC     C38      CTL2    -0.180000       12.0110           0
     16549 MEMB     125      POPC     H8X      HAL2     0.900000E-01   1.00800           0
     16550 MEMB     125      POPC     H8Y      HAL2     0.900000E-01   1.00800           0
     16551 MEMB     125      POPC     C39      CTL2    -0.180000       12.0110           0
     16552 MEMB     125      POPC     H9X      HAL2     0.900000E-01   1.00800           0
     16553 MEMB     125      POPC     H9Y      HAL2     0.900000E-01   1.00800           0
     16554 MEMB     125      POPC     C310     CTL2    -0.180000       12.0110           0
     16555 MEMB     125      POPC     H10X     HAL2     0.900000E-01   1.00800           0
     16556 MEMB     125      POPC     H10Y     HAL2     0.900000E-01   1.00800           0
     16557 MEMB     125      POPC     C311     CTL2    -0.180000       12.0110           0
     16558 MEMB     125      POPC     H11X     HAL2     0.900000E-01   1.00800           0
     16559 MEMB     125      POPC     H11Y     HAL2     0.900000E-01   1.00800           0
     16560 MEMB     125      POPC     C312     CTL2    -0.180000       12.0110           0
     16561 MEMB     125      POPC     H12X     HAL2     0.900000E-01   1.00800           0
     16562 MEMB     125      POPC     H12Y     HAL2     0.900000E-01   1.00800           0
     16563 MEMB     125      POPC     C313     CTL2    -0.180000       12.0110           0
     16564 MEMB     125      POPC     H13X     HAL2     0.900000E-01   1.00800           0
     16565 MEMB     125      POPC     H13Y     HAL2     0.900000E-01   1.00800           0
     16566 MEMB     125      POPC     C314     CTL2    -0.180000       12.0110           0
     16567 MEMB     125      POPC     H14X     HAL2     0.900000E-01   1.00800           0
     16568 MEMB     125      POPC     H14Y     HAL2     0.900000E-01   1.00800           0
     16569 MEMB     125      POPC     C315     CTL2    -0.180000       12.0110           0
     16570 MEMB     125      POPC     H15X     HAL2     0.900000E-01   1.00800           0
     16571 MEMB     125      POPC     H15Y     HAL2     0.900000E-01   1.00800           0
     16572 MEMB     125      POPC     C316     CTL3    -0.270000       12.0110           0
     16573 MEMB     125      POPC     H16X     HAL3     0.900000E-01   1.00800           0
     16574 MEMB     125      POPC     H16Y     HAL3     0.900000E-01   1.00800           0
     16575 MEMB     125      POPC     H16Z     HAL3     0.900000E-01   1.00800           0
     16576 MEMB     126      POPS     N        NH3L    -0.300000       14.0070           0
     16577 MEMB     126      POPS     HN1      HCL      0.330000       1.00800           0
     16578 MEMB     126      POPS     HN2      HCL      0.330000       1.00800           0
     16579 MEMB     126      POPS     HN3      HCL      0.330000       1.00800           0
     16580 MEMB     126      POPS     C12      CTL1     0.210000       12.0110           0
     16581 MEMB     126      POPS     H12A     HBL      0.100000       1.00800           0
     16582 MEMB     126      POPS     C13      CCL      0.340000       12.0110           0
     16583 MEMB     126      POPS     O13A     OCL     -0.670000       15.9994           0
     16584 MEMB     126      POPS     O13B     OCL     -0.670000       15.9994           0
     16585 MEMB     126      POPS     C11      CTL2    -0.800000E-01   12.0110           0
     16586 MEMB     126      POPS     H11A     HAL2     0.900000E-01   1.00800           0
     16587 MEMB     126      POPS     H11B     HAL2     0.900000E-01   1.00800           0
     16588 MEMB     126      POPS     P        PL        1.50000       30.9740           0
     16589 MEMB     126      POPS     O13      O2L     -0.780000       15.9994           0
     16590 MEMB     126      POPS     O14      O2L     -0.780000       15.9994           0
     16591 MEMB     126      POPS     O12      OSLP    -0.570000       15.9994           0
     16592 MEMB     126      POPS     O11      OSLP    -0.570000       15.9994           0
     16593 MEMB     126      POPS     C1       CTL2    -0.800000E-01   12.0110           0
     16594 MEMB     126      POPS     HA       HAL2     0.900000E-01   1.00800           0
     16595 MEMB     126      POPS     HB       HAL2     0.900000E-01   1.00800           0
     16596 MEMB     126      POPS     C2       CTL1     0.170000       12.0110           0
     16597 MEMB     126      POPS     HS       HAL1     0.900000E-01   1.00800           0
     16598 MEMB     126      POPS     O21      OSL     -0.490000       15.9994           0
     16599 MEMB     126      POPS     C21      CL       0.900000       12.0110           0
     16600 MEMB     126      POPS     O22      OBL     -0.630000       15.9994           0
     16601 MEMB     126      POPS     C22      CTL2    -0.220000       12.0110           0
     16602 MEMB     126      POPS     H2R      HAL2     0.900000E-01   1.00800           0
     16603 MEMB     126      POPS     H2S      HAL2     0.900000E-01   1.00800           0
     16604 MEMB     126      POPS     C3       CTL2     0.800000E-01   12.0110           0
     16605 MEMB     126      POPS     HX       HAL2     0.900000E-01   1.00800           0
     16606 MEMB     126      POPS     HY       HAL2     0.900000E-01   1.00800           0
     16607 MEMB     126      POPS     O31      OSL     -0.490000       15.9994           0
     16608 MEMB     126      POPS     C31      CL       0.900000       12.0110           0
     16609 MEMB     126      POPS     O32      OBL     -0.630000       15.9994           0
     16610 MEMB     126      POPS     C32      CTL2    -0.220000       12.0110           0
     16611 MEMB     126      POPS     H2X      HAL2     0.900000E-01   1.00800           0
     16612 MEMB     126      POPS     H2Y      HAL2     0.900000E-01   1.00800           0
     16613 MEMB     126      POPS     C23      CTL2    -0.180000       12.0110           0
     16614 MEMB     126      POPS     H3R      HAL2     0.900000E-01   1.00800           0
     16615 MEMB     126      POPS     H3S      HAL2     0.900000E-01   1.00800           0
     16616 MEMB     126      POPS     C24      CTL2    -0.180000       12.0110           0
     16617 MEMB     126      POPS     H4R      HAL2     0.900000E-01   1.00800           0
     16618 MEMB     126      POPS     H4S      HAL2     0.900000E-01   1.00800           0
     16619 MEMB     126      POPS     C25      CTL2    -0.180000       12.0110           0
     16620 MEMB     126      POPS     H5R      HAL2     0.900000E-01   1.00800           0
     16621 MEMB     126      POPS     H5S      HAL2     0.900000E-01   1.00800           0
     16622 MEMB     126      POPS     C26      CTL2    -0.180000       12.0110           0
     16623 MEMB     126      POPS     H6R      HAL2     0.900000E-01   1.00800           0
     16624 MEMB     126      POPS     H6S      HAL2     0.900000E-01   1.00800           0
     16625 MEMB     126      POPS     C27      CTL2    -0.180000       12.0110           0
     16626 MEMB     126      POPS     H7R      HAL2     0.900000E-01   1.00800           0
     16627 MEMB     126      POPS     H7S      HAL2     0.900000E-01   1.00800           0
     16628 MEMB     126      POPS     C28      CTL2    -0.180000       12.0110           0
     16629 MEMB     126      POPS     H8R      HAL2     0.900000E-01   1.00800           0
     16630 MEMB     126      POPS     H8S      HAL2     0.900000E-01   1.00800           0
     16631 MEMB     126      POPS     C29      CEL1    -0.150000       12.0110           0
     16632 MEMB     126      POPS     H91      HEL1     0.150000       1.00800           0
     16633 MEMB     126      POPS     C210     CEL1    -0.150000       12.0110           0
     16634 MEMB     126      POPS     H101     HEL1     0.150000       1.00800           0
     16635 MEMB     126      POPS     C211     CTL2    -0.180000       12.0110           0
     16636 MEMB     126      POPS     H11R     HAL2     0.900000E-01   1.00800           0
     16637 MEMB     126      POPS     H11S     HAL2     0.900000E-01   1.00800           0
     16638 MEMB     126      POPS     C212     CTL2    -0.180000       12.0110           0
     16639 MEMB     126      POPS     H12R     HAL2     0.900000E-01   1.00800           0
     16640 MEMB     126      POPS     H12S     HAL2     0.900000E-01   1.00800           0
     16641 MEMB     126      POPS     C213     CTL2    -0.180000       12.0110           0
     16642 MEMB     126      POPS     H13R     HAL2     0.900000E-01   1.00800           0
     16643 MEMB     126      POPS     H13S     HAL2     0.900000E-01   1.00800           0
     16644 MEMB     126      POPS     C214     CTL2    -0.180000       12.0110           0
     16645 MEMB     126      POPS     H14R     HAL2     0.900000E-01   1.00800           0
     16646 MEMB     126      POPS     H14S     HAL2     0.900000E-01   1.00800           0
     16647 MEMB     126      POPS     C215     CTL2    -0.180000       12.0110           0
     16648 MEMB     126      POPS     H15R     HAL2     0.900000E-01   1.00800           0
     16649 MEMB     126      POPS     H15S     HAL2     0.900000E-01   1.00800           0
     16650 MEMB     126      POPS     C216     CTL2    -0.180000       12.0110           0
     16651 MEMB     126      POPS     H16R     HAL2     0.900000E-01   1.00800           0
     16652 MEMB     126      POPS     H16S     HAL2     0.900000E-01   1.00800           0
     16653 MEMB     126      POPS     C217     CTL2    -0.180000       12.0110           0
     16654 MEMB     126      POPS     H17R     HAL2     0.900000E-01   1.00800           0
     16655 MEMB     126      POPS     H17S     HAL2     0.900000E-01   1.00800           0
     16656 MEMB     126      POPS     C218     CTL3    -0.270000       12.0110           0
     16657 MEMB     126      POPS     H18R     HAL3     0.900000E-01   1.00800           0
     16658 MEMB     126      POPS     H18S     HAL3     0.900000E-01   1.00800           0
     16659 MEMB     126      POPS     H18T     HAL3     0.900000E-01   1.00800           0
     16660 MEMB     126      POPS     C33      CTL2    -0.180000       12.0110           0
     16661 MEMB     126      POPS     H3X      HAL2     0.900000E-01   1.00800           0
     16662 MEMB     126      POPS     H3Y      HAL2     0.900000E-01   1.00800           0
     16663 MEMB     126      POPS     C34      CTL2    -0.180000       12.0110           0
     16664 MEMB     126      POPS     H4X      HAL2     0.900000E-01   1.00800           0
     16665 MEMB     126      POPS     H4Y      HAL2     0.900000E-01   1.00800           0
     16666 MEMB     126      POPS     C35      CTL2    -0.180000       12.0110           0
     16667 MEMB     126      POPS     H5X      HAL2     0.900000E-01   1.00800           0
     16668 MEMB     126      POPS     H5Y      HAL2     0.900000E-01   1.00800           0
     16669 MEMB     126      POPS     C36      CTL2    -0.180000       12.0110           0
     16670 MEMB     126      POPS     H6X      HAL2     0.900000E-01   1.00800           0
     16671 MEMB     126      POPS     H6Y      HAL2     0.900000E-01   1.00800           0
     16672 MEMB     126      POPS     C37      CTL2    -0.180000       12.0110           0
     16673 MEMB     126      POPS     H7X      HAL2     0.900000E-01   1.00800           0
     16674 MEMB     126      POPS     H7Y      HAL2     0.900000E-01   1.00800           0
     16675 MEMB     126      POPS     C38      CTL2    -0.180000       12.0110           0
     16676 MEMB     126      POPS     H8X      HAL2     0.900000E-01   1.00800           0
     16677 MEMB     126      POPS     H8Y      HAL2     0.900000E-01   1.00800           0
     16678 MEMB     126      POPS     C39      CTL2    -0.180000       12.0110           0
     16679 MEMB     126      POPS     H9X      HAL2     0.900000E-01   1.00800           0
     16680 MEMB     126      POPS     H9Y      HAL2     0.900000E-01   1.00800           0
     16681 MEMB     126      POPS     C310     CTL2    -0.180000       12.0110           0
     16682 MEMB     126      POPS     H10X     HAL2     0.900000E-01   1.00800           0
     16683 MEMB     126      POPS     H10Y     HAL2     0.900000E-01   1.00800           0
     16684 MEMB     126      POPS     C311     CTL2    -0.180000       12.0110           0
     16685 MEMB     126      POPS     H11X     HAL2     0.900000E-01   1.00800           0
     16686 MEMB     126      POPS     H11Y     HAL2     0.900000E-01   1.00800           0
     16687 MEMB     126      POPS     C312     CTL2    -0.180000       12.0110           0
     16688 MEMB     126      POPS     H12X     HAL2     0.900000E-01   1.00800           0
     16689 MEMB     126      POPS     H12Y     HAL2     0.900000E-01   1.00800           0
     16690 MEMB     126      POPS     C313     CTL2    -0.180000       12.0110           0
     16691 MEMB     126      POPS     H13X     HAL2     0.900000E-01   1.00800           0
     16692 MEMB     126      POPS     H13Y     HAL2     0.900000E-01   1.00800           0
     16693 MEMB     126      POPS     C314     CTL2    -0.180000       12.0110           0
     16694 MEMB     126      POPS     H14X     HAL2     0.900000E-01   1.00800           0
     16695 MEMB     126      POPS     H14Y     HAL2     0.900000E-01   1.00800           0
     16696 MEMB     126      POPS     C315     CTL2    -0.180000       12.0110           0
     16697 MEMB     126      POPS     H15X     HAL2     0.900000E-01   1.00800           0
     16698 MEMB     126      POPS     H15Y     HAL2     0.900000E-01   1.00800           0
     16699 MEMB     126      POPS     C316     CTL3    -0.270000       12.0110           0
     16700 MEMB     126      POPS     H16X     HAL3     0.900000E-01   1.00800           0
     16701 MEMB     126      POPS     H16Y     HAL3     0.900000E-01   1.00800           0
     16702 MEMB     126      POPS     H16Z     HAL3     0.900000E-01   1.00800           0
     16703 MEMB     127      POPC     N        NTL     -0.600000       14.0070           0
     16704 MEMB     127      POPC     C12      CTL2    -0.100000       12.0110           0
     16705 MEMB     127      POPC     H12A     HL       0.250000       1.00800           0
     16706 MEMB     127      POPC     H12B     HL       0.250000       1.00800           0
     16707 MEMB     127      POPC     C13      CTL5    -0.350000       12.0110           0
     16708 MEMB     127      POPC     H13A     HL       0.250000       1.00800           0
     16709 MEMB     127      POPC     H13B     HL       0.250000       1.00800           0
     16710 MEMB     127      POPC     H13C     HL       0.250000       1.00800           0
     16711 MEMB     127      POPC     C14      CTL5    -0.350000       12.0110           0
     16712 MEMB     127      POPC     H14A     HL       0.250000       1.00800           0
     16713 MEMB     127      POPC     H14B     HL       0.250000       1.00800           0
     16714 MEMB     127      POPC     H14C     HL       0.250000       1.00800           0
     16715 MEMB     127      POPC     C15      CTL5    -0.350000       12.0110           0
     16716 MEMB     127      POPC     H15A     HL       0.250000       1.00800           0
     16717 MEMB     127      POPC     H15B     HL       0.250000       1.00800           0
     16718 MEMB     127      POPC     H15C     HL       0.250000       1.00800           0
     16719 MEMB     127      POPC     C11      CTL2    -0.800000E-01   12.0110           0
     16720 MEMB     127      POPC     H11A     HAL2     0.900000E-01   1.00800           0
     16721 MEMB     127      POPC     H11B     HAL2     0.900000E-01   1.00800           0
     16722 MEMB     127      POPC     P        PL        1.50000       30.9740           0
     16723 MEMB     127      POPC     O13      O2L     -0.780000       15.9994           0
     16724 MEMB     127      POPC     O14      O2L     -0.780000       15.9994           0
     16725 MEMB     127      POPC     O12      OSLP    -0.570000       15.9994           0
     16726 MEMB     127      POPC     O11      OSLP    -0.570000       15.9994           0
     16727 MEMB     127      POPC     C1       CTL2    -0.800000E-01   12.0110           0
     16728 MEMB     127      POPC     HA       HAL2     0.900000E-01   1.00800           0
     16729 MEMB     127      POPC     HB       HAL2     0.900000E-01   1.00800           0
     16730 MEMB     127      POPC     C2       CTL1     0.170000       12.0110           0
     16731 MEMB     127      POPC     HS       HAL1     0.900000E-01   1.00800           0
     16732 MEMB     127      POPC     O21      OSL     -0.490000       15.9994           0
     16733 MEMB     127      POPC     C21      CL       0.900000       12.0110           0
     16734 MEMB     127      POPC     O22      OBL     -0.630000       15.9994           0
     16735 MEMB     127      POPC     C22      CTL2    -0.220000       12.0110           0
     16736 MEMB     127      POPC     H2R      HAL2     0.900000E-01   1.00800           0
     16737 MEMB     127      POPC     H2S      HAL2     0.900000E-01   1.00800           0
     16738 MEMB     127      POPC     C3       CTL2     0.800000E-01   12.0110           0
     16739 MEMB     127      POPC     HX       HAL2     0.900000E-01   1.00800           0
     16740 MEMB     127      POPC     HY       HAL2     0.900000E-01   1.00800           0
     16741 MEMB     127      POPC     O31      OSL     -0.490000       15.9994           0
     16742 MEMB     127      POPC     C31      CL       0.900000       12.0110           0
     16743 MEMB     127      POPC     O32      OBL     -0.630000       15.9994           0
     16744 MEMB     127      POPC     C32      CTL2    -0.220000       12.0110           0
     16745 MEMB     127      POPC     H2X      HAL2     0.900000E-01   1.00800           0
     16746 MEMB     127      POPC     H2Y      HAL2     0.900000E-01   1.00800           0
     16747 MEMB     127      POPC     C23      CTL2    -0.180000       12.0110           0
     16748 MEMB     127      POPC     H3R      HAL2     0.900000E-01   1.00800           0
     16749 MEMB     127      POPC     H3S      HAL2     0.900000E-01   1.00800           0
     16750 MEMB     127      POPC     C24      CTL2    -0.180000       12.0110           0
     16751 MEMB     127      POPC     H4R      HAL2     0.900000E-01   1.00800           0
     16752 MEMB     127      POPC     H4S      HAL2     0.900000E-01   1.00800           0
     16753 MEMB     127      POPC     C25      CTL2    -0.180000       12.0110           0
     16754 MEMB     127      POPC     H5R      HAL2     0.900000E-01   1.00800           0
     16755 MEMB     127      POPC     H5S      HAL2     0.900000E-01   1.00800           0
     16756 MEMB     127      POPC     C26      CTL2    -0.180000       12.0110           0
     16757 MEMB     127      POPC     H6R      HAL2     0.900000E-01   1.00800           0
     16758 MEMB     127      POPC     H6S      HAL2     0.900000E-01   1.00800           0
     16759 MEMB     127      POPC     C27      CTL2    -0.180000       12.0110           0
     16760 MEMB     127      POPC     H7R      HAL2     0.900000E-01   1.00800           0
     16761 MEMB     127      POPC     H7S      HAL2     0.900000E-01   1.00800           0
     16762 MEMB     127      POPC     C28      CTL2    -0.180000       12.0110           0
     16763 MEMB     127      POPC     H8R      HAL2     0.900000E-01   1.00800           0
     16764 MEMB     127      POPC     H8S      HAL2     0.900000E-01   1.00800           0
     16765 MEMB     127      POPC     C29      CEL1    -0.150000       12.0110           0
     16766 MEMB     127      POPC     H91      HEL1     0.150000       1.00800           0
     16767 MEMB     127      POPC     C210     CEL1    -0.150000       12.0110           0
     16768 MEMB     127      POPC     H101     HEL1     0.150000       1.00800           0
     16769 MEMB     127      POPC     C211     CTL2    -0.180000       12.0110           0
     16770 MEMB     127      POPC     H11R     HAL2     0.900000E-01   1.00800           0
     16771 MEMB     127      POPC     H11S     HAL2     0.900000E-01   1.00800           0
     16772 MEMB     127      POPC     C212     CTL2    -0.180000       12.0110           0
     16773 MEMB     127      POPC     H12R     HAL2     0.900000E-01   1.00800           0
     16774 MEMB     127      POPC     H12S     HAL2     0.900000E-01   1.00800           0
     16775 MEMB     127      POPC     C213     CTL2    -0.180000       12.0110           0
     16776 MEMB     127      POPC     H13R     HAL2     0.900000E-01   1.00800           0
     16777 MEMB     127      POPC     H13S     HAL2     0.900000E-01   1.00800           0
     16778 MEMB     127      POPC     C214     CTL2    -0.180000       12.0110           0
     16779 MEMB     127      POPC     H14R     HAL2     0.900000E-01   1.00800           0
     16780 MEMB     127      POPC     H14S     HAL2     0.900000E-01   1.00800           0
     16781 MEMB     127      POPC     C215     CTL2    -0.180000       12.0110           0
     16782 MEMB     127      POPC     H15R     HAL2     0.900000E-01   1.00800           0
     16783 MEMB     127      POPC     H15S     HAL2     0.900000E-01   1.00800           0
     16784 MEMB     127      POPC     C216     CTL2    -0.180000       12.0110           0
     16785 MEMB     127      POPC     H16R     HAL2     0.900000E-01   1.00800           0
     16786 MEMB     127      POPC     H16S     HAL2     0.900000E-01   1.00800           0
     16787 MEMB     127      POPC     C217     CTL2    -0.180000       12.0110           0
     16788 MEMB     127      POPC     H17R     HAL2     0.900000E-01   1.00800           0
     16789 MEMB     127      POPC     H17S     HAL2     0.900000E-01   1.00800           0
     16790 MEMB     127      POPC     C218     CTL3    -0.270000       12.0110           0
     16791 MEMB     127      POPC     H18R     HAL3     0.900000E-01   1.00800           0
     16792 MEMB     127      POPC     H18S     HAL3     0.900000E-01   1.00800           0
     16793 MEMB     127      POPC     H18T     HAL3     0.900000E-01   1.00800           0
     16794 MEMB     127      POPC     C33      CTL2    -0.180000       12.0110           0
     16795 MEMB     127      POPC     H3X      HAL2     0.900000E-01   1.00800           0
     16796 MEMB     127      POPC     H3Y      HAL2     0.900000E-01   1.00800           0
     16797 MEMB     127      POPC     C34      CTL2    -0.180000       12.0110           0
     16798 MEMB     127      POPC     H4X      HAL2     0.900000E-01   1.00800           0
     16799 MEMB     127      POPC     H4Y      HAL2     0.900000E-01   1.00800           0
     16800 MEMB     127      POPC     C35      CTL2    -0.180000       12.0110           0
     16801 MEMB     127      POPC     H5X      HAL2     0.900000E-01   1.00800           0
     16802 MEMB     127      POPC     H5Y      HAL2     0.900000E-01   1.00800           0
     16803 MEMB     127      POPC     C36      CTL2    -0.180000       12.0110           0
     16804 MEMB     127      POPC     H6X      HAL2     0.900000E-01   1.00800           0
     16805 MEMB     127      POPC     H6Y      HAL2     0.900000E-01   1.00800           0
     16806 MEMB     127      POPC     C37      CTL2    -0.180000       12.0110           0
     16807 MEMB     127      POPC     H7X      HAL2     0.900000E-01   1.00800           0
     16808 MEMB     127      POPC     H7Y      HAL2     0.900000E-01   1.00800           0
     16809 MEMB     127      POPC     C38      CTL2    -0.180000       12.0110           0
     16810 MEMB     127      POPC     H8X      HAL2     0.900000E-01   1.00800           0
     16811 MEMB     127      POPC     H8Y      HAL2     0.900000E-01   1.00800           0
     16812 MEMB     127      POPC     C39      CTL2    -0.180000       12.0110           0
     16813 MEMB     127      POPC     H9X      HAL2     0.900000E-01   1.00800           0
     16814 MEMB     127      POPC     H9Y      HAL2     0.900000E-01   1.00800           0
     16815 MEMB     127      POPC     C310     CTL2    -0.180000       12.0110           0
     16816 MEMB     127      POPC     H10X     HAL2     0.900000E-01   1.00800           0
     16817 MEMB     127      POPC     H10Y     HAL2     0.900000E-01   1.00800           0
     16818 MEMB     127      POPC     C311     CTL2    -0.180000       12.0110           0
     16819 MEMB     127      POPC     H11X     HAL2     0.900000E-01   1.00800           0
     16820 MEMB     127      POPC     H11Y     HAL2     0.900000E-01   1.00800           0
     16821 MEMB     127      POPC     C312     CTL2    -0.180000       12.0110           0
     16822 MEMB     127      POPC     H12X     HAL2     0.900000E-01   1.00800           0
     16823 MEMB     127      POPC     H12Y     HAL2     0.900000E-01   1.00800           0
     16824 MEMB     127      POPC     C313     CTL2    -0.180000       12.0110           0
     16825 MEMB     127      POPC     H13X     HAL2     0.900000E-01   1.00800           0
     16826 MEMB     127      POPC     H13Y     HAL2     0.900000E-01   1.00800           0
     16827 MEMB     127      POPC     C314     CTL2    -0.180000       12.0110           0
     16828 MEMB     127      POPC     H14X     HAL2     0.900000E-01   1.00800           0
     16829 MEMB     127      POPC     H14Y     HAL2     0.900000E-01   1.00800           0
     16830 MEMB     127      POPC     C315     CTL2    -0.180000       12.0110           0
     16831 MEMB     127      POPC     H15X     HAL2     0.900000E-01   1.00800           0
     16832 MEMB     127      POPC     H15Y     HAL2     0.900000E-01   1.00800           0
     16833 MEMB     127      POPC     C316     CTL3    -0.270000       12.0110           0
     16834 MEMB     127      POPC     H16X     HAL3     0.900000E-01   1.00800           0
     16835 MEMB     127      POPC     H16Y     HAL3     0.900000E-01   1.00800           0
     16836 MEMB     127      POPC     H16Z     HAL3     0.900000E-01   1.00800           0
     16837 MEMB     128      POPC     N        NTL     -0.600000       14.0070           0
     16838 MEMB     128      POPC     C12      CTL2    -0.100000       12.0110           0
     16839 MEMB     128      POPC     H12A     HL       0.250000       1.00800           0
     16840 MEMB     128      POPC     H12B     HL       0.250000       1.00800           0
     16841 MEMB     128      POPC     C13      CTL5    -0.350000       12.0110           0
     16842 MEMB     128      POPC     H13A     HL       0.250000       1.00800           0
     16843 MEMB     128      POPC     H13B     HL       0.250000       1.00800           0
     16844 MEMB     128      POPC     H13C     HL       0.250000       1.00800           0
     16845 MEMB     128      POPC     C14      CTL5    -0.350000       12.0110           0
     16846 MEMB     128      POPC     H14A     HL       0.250000       1.00800           0
     16847 MEMB     128      POPC     H14B     HL       0.250000       1.00800           0
     16848 MEMB     128      POPC     H14C     HL       0.250000       1.00800           0
     16849 MEMB     128      POPC     C15      CTL5    -0.350000       12.0110           0
     16850 MEMB     128      POPC     H15A     HL       0.250000       1.00800           0
     16851 MEMB     128      POPC     H15B     HL       0.250000       1.00800           0
     16852 MEMB     128      POPC     H15C     HL       0.250000       1.00800           0
     16853 MEMB     128      POPC     C11      CTL2    -0.800000E-01   12.0110           0
     16854 MEMB     128      POPC     H11A     HAL2     0.900000E-01   1.00800           0
     16855 MEMB     128      POPC     H11B     HAL2     0.900000E-01   1.00800           0
     16856 MEMB     128      POPC     P        PL        1.50000       30.9740           0
     16857 MEMB     128      POPC     O13      O2L     -0.780000       15.9994           0
     16858 MEMB     128      POPC     O14      O2L     -0.780000       15.9994           0
     16859 MEMB     128      POPC     O12      OSLP    -0.570000       15.9994           0
     16860 MEMB     128      POPC     O11      OSLP    -0.570000       15.9994           0
     16861 MEMB     128      POPC     C1       CTL2    -0.800000E-01   12.0110           0
     16862 MEMB     128      POPC     HA       HAL2     0.900000E-01   1.00800           0
     16863 MEMB     128      POPC     HB       HAL2     0.900000E-01   1.00800           0
     16864 MEMB     128      POPC     C2       CTL1     0.170000       12.0110           0
     16865 MEMB     128      POPC     HS       HAL1     0.900000E-01   1.00800           0
     16866 MEMB     128      POPC     O21      OSL     -0.490000       15.9994           0
     16867 MEMB     128      POPC     C21      CL       0.900000       12.0110           0
     16868 MEMB     128      POPC     O22      OBL     -0.630000       15.9994           0
     16869 MEMB     128      POPC     C22      CTL2    -0.220000       12.0110           0
     16870 MEMB     128      POPC     H2R      HAL2     0.900000E-01   1.00800           0
     16871 MEMB     128      POPC     H2S      HAL2     0.900000E-01   1.00800           0
     16872 MEMB     128      POPC     C3       CTL2     0.800000E-01   12.0110           0
     16873 MEMB     128      POPC     HX       HAL2     0.900000E-01   1.00800           0
     16874 MEMB     128      POPC     HY       HAL2     0.900000E-01   1.00800           0
     16875 MEMB     128      POPC     O31      OSL     -0.490000       15.9994           0
     16876 MEMB     128      POPC     C31      CL       0.900000       12.0110           0
     16877 MEMB     128      POPC     O32      OBL     -0.630000       15.9994           0
     16878 MEMB     128      POPC     C32      CTL2    -0.220000       12.0110           0
     16879 MEMB     128      POPC     H2X      HAL2     0.900000E-01   1.00800           0
     16880 MEMB     128      POPC     H2Y      HAL2     0.900000E-01   1.00800           0
     16881 MEMB     128      POPC     C23      CTL2    -0.180000       12.0110           0
     16882 MEMB     128      POPC     H3R      HAL2     0.900000E-01   1.00800           0
     16883 MEMB     128      POPC     H3S      HAL2     0.900000E-01   1.00800           0
     16884 MEMB     128      POPC     C24      CTL2    -0.180000       12.0110           0
     16885 MEMB     128      POPC     H4R      HAL2     0.900000E-01   1.00800           0
     16886 MEMB     128      POPC     H4S      HAL2     0.900000E-01   1.00800           0
     16887 MEMB     128      POPC     C25      CTL2    -0.180000       12.0110           0
     16888 MEMB     128      POPC     H5R      HAL2     0.900000E-01   1.00800           0
     16889 MEMB     128      POPC     H5S      HAL2     0.900000E-01   1.00800           0
     16890 MEMB     128      POPC     C26      CTL2    -0.180000       12.0110           0
     16891 MEMB     128      POPC     H6R      HAL2     0.900000E-01   1.00800           0
     16892 MEMB     128      POPC     H6S      HAL2     0.900000E-01   1.00800           0
     16893 MEMB     128      POPC     C27      CTL2    -0.180000       12.0110           0
     16894 MEMB     128      POPC     H7R      HAL2     0.900000E-01   1.00800           0
     16895 MEMB     128      POPC     H7S      HAL2     0.900000E-01   1.00800           0
     16896 MEMB     128      POPC     C28      CTL2    -0.180000       12.0110           0
     16897 MEMB     128      POPC     H8R      HAL2     0.900000E-01   1.00800           0
     16898 MEMB     128      POPC     H8S      HAL2     0.900000E-01   1.00800           0
     16899 MEMB     128      POPC     C29      CEL1    -0.150000       12.0110           0
     16900 MEMB     128      POPC     H91      HEL1     0.150000       1.00800           0
     16901 MEMB     128      POPC     C210     CEL1    -0.150000       12.0110           0
     16902 MEMB     128      POPC     H101     HEL1     0.150000       1.00800           0
     16903 MEMB     128      POPC     C211     CTL2    -0.180000       12.0110           0
     16904 MEMB     128      POPC     H11R     HAL2     0.900000E-01   1.00800           0
     16905 MEMB     128      POPC     H11S     HAL2     0.900000E-01   1.00800           0
     16906 MEMB     128      POPC     C212     CTL2    -0.180000       12.0110           0
     16907 MEMB     128      POPC     H12R     HAL2     0.900000E-01   1.00800           0
     16908 MEMB     128      POPC     H12S     HAL2     0.900000E-01   1.00800           0
     16909 MEMB     128      POPC     C213     CTL2    -0.180000       12.0110           0
     16910 MEMB     128      POPC     H13R     HAL2     0.900000E-01   1.00800           0
     16911 MEMB     128      POPC     H13S     HAL2     0.900000E-01   1.00800           0
     16912 MEMB     128      POPC     C214     CTL2    -0.180000       12.0110           0
     16913 MEMB     128      POPC     H14R     HAL2     0.900000E-01   1.00800           0
     16914 MEMB     128      POPC     H14S     HAL2     0.900000E-01   1.00800           0
     16915 MEMB     128      POPC     C215     CTL2    -0.180000       12.0110           0
     16916 MEMB     128      POPC     H15R     HAL2     0.900000E-01   1.00800           0
     16917 MEMB     128      POPC     H15S     HAL2     0.900000E-01   1.00800           0
     16918 MEMB     128      POPC     C216     CTL2    -0.180000       12.0110           0
     16919 MEMB     128      POPC     H16R     HAL2     0.900000E-01   1.00800           0
     16920 MEMB     128      POPC     H16S     HAL2     0.900000E-01   1.00800           0
     16921 MEMB     128      POPC     C217     CTL2    -0.180000       12.0110           0
     16922 MEMB     128      POPC     H17R     HAL2     0.900000E-01   1.00800           0
     16923 MEMB     128      POPC     H17S     HAL2     0.900000E-01   1.00800           0
     16924 MEMB     128      POPC     C218     CTL3    -0.270000       12.0110           0
     16925 MEMB     128      POPC     H18R     HAL3     0.900000E-01   1.00800           0
     16926 MEMB     128      POPC     H18S     HAL3     0.900000E-01   1.00800           0
     16927 MEMB     128      POPC     H18T     HAL3     0.900000E-01   1.00800           0
     16928 MEMB     128      POPC     C33      CTL2    -0.180000       12.0110           0
     16929 MEMB     128      POPC     H3X      HAL2     0.900000E-01   1.00800           0
     16930 MEMB     128      POPC     H3Y      HAL2     0.900000E-01   1.00800           0
     16931 MEMB     128      POPC     C34      CTL2    -0.180000       12.0110           0
     16932 MEMB     128      POPC     H4X      HAL2     0.900000E-01   1.00800           0
     16933 MEMB     128      POPC     H4Y      HAL2     0.900000E-01   1.00800           0
     16934 MEMB     128      POPC     C35      CTL2    -0.180000       12.0110           0
     16935 MEMB     128      POPC     H5X      HAL2     0.900000E-01   1.00800           0
     16936 MEMB     128      POPC     H5Y      HAL2     0.900000E-01   1.00800           0
     16937 MEMB     128      POPC     C36      CTL2    -0.180000       12.0110           0
     16938 MEMB     128      POPC     H6X      HAL2     0.900000E-01   1.00800           0
     16939 MEMB     128      POPC     H6Y      HAL2     0.900000E-01   1.00800           0
     16940 MEMB     128      POPC     C37      CTL2    -0.180000       12.0110           0
     16941 MEMB     128      POPC     H7X      HAL2     0.900000E-01   1.00800           0
     16942 MEMB     128      POPC     H7Y      HAL2     0.900000E-01   1.00800           0
     16943 MEMB     128      POPC     C38      CTL2    -0.180000       12.0110           0
     16944 MEMB     128      POPC     H8X      HAL2     0.900000E-01   1.00800           0
     16945 MEMB     128      POPC     H8Y      HAL2     0.900000E-01   1.00800           0
     16946 MEMB     128      POPC     C39      CTL2    -0.180000       12.0110           0
     16947 MEMB     128      POPC     H9X      HAL2     0.900000E-01   1.00800           0
     16948 MEMB     128      POPC     H9Y      HAL2     0.900000E-01   1.00800           0
     16949 MEMB     128      POPC     C310     CTL2    -0.180000       12.0110           0
     16950 MEMB     128      POPC     H10X     HAL2     0.900000E-01   1.00800           0
     16951 MEMB     128      POPC     H10Y     HAL2     0.900000E-01   1.00800           0
     16952 MEMB     128      POPC     C311     CTL2    -0.180000       12.0110           0
     16953 MEMB     128      POPC     H11X     HAL2     0.900000E-01   1.00800           0
     16954 MEMB     128      POPC     H11Y     HAL2     0.900000E-01   1.00800           0
     16955 MEMB     128      POPC     C312     CTL2    -0.180000       12.0110           0
     16956 MEMB     128      POPC     H12X     HAL2     0.900000E-01   1.00800           0
     16957 MEMB     128      POPC     H12Y     HAL2     0.900000E-01   1.00800           0
     16958 MEMB     128      POPC     C313     CTL2    -0.180000       12.0110           0
     16959 MEMB     128      POPC     H13X     HAL2     0.900000E-01   1.00800           0
     16960 MEMB     128      POPC     H13Y     HAL2     0.900000E-01   1.00800           0
     16961 MEMB     128      POPC     C314     CTL2    -0.180000       12.0110           0
     16962 MEMB     128      POPC     H14X     HAL2     0.900000E-01   1.00800           0
     16963 MEMB     128      POPC     H14Y     HAL2     0.900000E-01   1.00800           0
     16964 MEMB     128      POPC     C315     CTL2    -0.180000       12.0110           0
     16965 MEMB     128      POPC     H15X     HAL2     0.900000E-01   1.00800           0
     16966 MEMB     128      POPC     H15Y     HAL2     0.900000E-01   1.00800           0
     16967 MEMB     128      POPC     C316     CTL3    -0.270000       12.0110           0
     16968 MEMB     128      POPC     H16X     HAL3     0.900000E-01   1.00800           0
     16969 MEMB     128      POPC     H16Y     HAL3     0.900000E-01   1.00800           0
     16970 MEMB     128      POPC     H16Z     HAL3     0.900000E-01   1.00800           0
     16971 MEMB     129      POPC     N        NTL     -0.600000       14.0070           0
     16972 MEMB     129      POPC     C12      CTL2    -0.100000       12.0110           0
     16973 MEMB     129      POPC     H12A     HL       0.250000       1.00800           0
     16974 MEMB     129      POPC     H12B     HL       0.250000       1.00800           0
     16975 MEMB     129      POPC     C13      CTL5    -0.350000       12.0110           0
     16976 MEMB     129      POPC     H13A     HL       0.250000       1.00800           0
     16977 MEMB     129      POPC     H13B     HL       0.250000       1.00800           0
     16978 MEMB     129      POPC     H13C     HL       0.250000       1.00800           0
     16979 MEMB     129      POPC     C14      CTL5    -0.350000       12.0110           0
     16980 MEMB     129      POPC     H14A     HL       0.250000       1.00800           0
     16981 MEMB     129      POPC     H14B     HL       0.250000       1.00800           0
     16982 MEMB     129      POPC     H14C     HL       0.250000       1.00800           0
     16983 MEMB     129      POPC     C15      CTL5    -0.350000       12.0110           0
     16984 MEMB     129      POPC     H15A     HL       0.250000       1.00800           0
     16985 MEMB     129      POPC     H15B     HL       0.250000       1.00800           0
     16986 MEMB     129      POPC     H15C     HL       0.250000       1.00800           0
     16987 MEMB     129      POPC     C11      CTL2    -0.800000E-01   12.0110           0
     16988 MEMB     129      POPC     H11A     HAL2     0.900000E-01   1.00800           0
     16989 MEMB     129      POPC     H11B     HAL2     0.900000E-01   1.00800           0
     16990 MEMB     129      POPC     P        PL        1.50000       30.9740           0
     16991 MEMB     129      POPC     O13      O2L     -0.780000       15.9994           0
     16992 MEMB     129      POPC     O14      O2L     -0.780000       15.9994           0
     16993 MEMB     129      POPC     O12      OSLP    -0.570000       15.9994           0
     16994 MEMB     129      POPC     O11      OSLP    -0.570000       15.9994           0
     16995 MEMB     129      POPC     C1       CTL2    -0.800000E-01   12.0110           0
     16996 MEMB     129      POPC     HA       HAL2     0.900000E-01   1.00800           0
     16997 MEMB     129      POPC     HB       HAL2     0.900000E-01   1.00800           0
     16998 MEMB     129      POPC     C2       CTL1     0.170000       12.0110           0
     16999 MEMB     129      POPC     HS       HAL1     0.900000E-01   1.00800           0
     17000 MEMB     129      POPC     O21      OSL     -0.490000       15.9994           0
     17001 MEMB     129      POPC     C21      CL       0.900000       12.0110           0
     17002 MEMB     129      POPC     O22      OBL     -0.630000       15.9994           0
     17003 MEMB     129      POPC     C22      CTL2    -0.220000       12.0110           0
     17004 MEMB     129      POPC     H2R      HAL2     0.900000E-01   1.00800           0
     17005 MEMB     129      POPC     H2S      HAL2     0.900000E-01   1.00800           0
     17006 MEMB     129      POPC     C3       CTL2     0.800000E-01   12.0110           0
     17007 MEMB     129      POPC     HX       HAL2     0.900000E-01   1.00800           0
     17008 MEMB     129      POPC     HY       HAL2     0.900000E-01   1.00800           0
     17009 MEMB     129      POPC     O31      OSL     -0.490000       15.9994           0
     17010 MEMB     129      POPC     C31      CL       0.900000       12.0110           0
     17011 MEMB     129      POPC     O32      OBL     -0.630000       15.9994           0
     17012 MEMB     129      POPC     C32      CTL2    -0.220000       12.0110           0
     17013 MEMB     129      POPC     H2X      HAL2     0.900000E-01   1.00800           0
     17014 MEMB     129      POPC     H2Y      HAL2     0.900000E-01   1.00800           0
     17015 MEMB     129      POPC     C23      CTL2    -0.180000       12.0110           0
     17016 MEMB     129      POPC     H3R      HAL2     0.900000E-01   1.00800           0
     17017 MEMB     129      POPC     H3S      HAL2     0.900000E-01   1.00800           0
     17018 MEMB     129      POPC     C24      CTL2    -0.180000       12.0110           0
     17019 MEMB     129      POPC     H4R      HAL2     0.900000E-01   1.00800           0
     17020 MEMB     129      POPC     H4S      HAL2     0.900000E-01   1.00800           0
     17021 MEMB     129      POPC     C25      CTL2    -0.180000       12.0110           0
     17022 MEMB     129      POPC     H5R      HAL2     0.900000E-01   1.00800           0
     17023 MEMB     129      POPC     H5S      HAL2     0.900000E-01   1.00800           0
     17024 MEMB     129      POPC     C26      CTL2    -0.180000       12.0110           0
     17025 MEMB     129      POPC     H6R      HAL2     0.900000E-01   1.00800           0
     17026 MEMB     129      POPC     H6S      HAL2     0.900000E-01   1.00800           0
     17027 MEMB     129      POPC     C27      CTL2    -0.180000       12.0110           0
     17028 MEMB     129      POPC     H7R      HAL2     0.900000E-01   1.00800           0
     17029 MEMB     129      POPC     H7S      HAL2     0.900000E-01   1.00800           0
     17030 MEMB     129      POPC     C28      CTL2    -0.180000       12.0110           0
     17031 MEMB     129      POPC     H8R      HAL2     0.900000E-01   1.00800           0
     17032 MEMB     129      POPC     H8S      HAL2     0.900000E-01   1.00800           0
     17033 MEMB     129      POPC     C29      CEL1    -0.150000       12.0110           0
     17034 MEMB     129      POPC     H91      HEL1     0.150000       1.00800           0
     17035 MEMB     129      POPC     C210     CEL1    -0.150000       12.0110           0
     17036 MEMB     129      POPC     H101     HEL1     0.150000       1.00800           0
     17037 MEMB     129      POPC     C211     CTL2    -0.180000       12.0110           0
     17038 MEMB     129      POPC     H11R     HAL2     0.900000E-01   1.00800           0
     17039 MEMB     129      POPC     H11S     HAL2     0.900000E-01   1.00800           0
     17040 MEMB     129      POPC     C212     CTL2    -0.180000       12.0110           0
     17041 MEMB     129      POPC     H12R     HAL2     0.900000E-01   1.00800           0
     17042 MEMB     129      POPC     H12S     HAL2     0.900000E-01   1.00800           0
     17043 MEMB     129      POPC     C213     CTL2    -0.180000       12.0110           0
     17044 MEMB     129      POPC     H13R     HAL2     0.900000E-01   1.00800           0
     17045 MEMB     129      POPC     H13S     HAL2     0.900000E-01   1.00800           0
     17046 MEMB     129      POPC     C214     CTL2    -0.180000       12.0110           0
     17047 MEMB     129      POPC     H14R     HAL2     0.900000E-01   1.00800           0
     17048 MEMB     129      POPC     H14S     HAL2     0.900000E-01   1.00800           0
     17049 MEMB     129      POPC     C215     CTL2    -0.180000       12.0110           0
     17050 MEMB     129      POPC     H15R     HAL2     0.900000E-01   1.00800           0
     17051 MEMB     129      POPC     H15S     HAL2     0.900000E-01   1.00800           0
     17052 MEMB     129      POPC     C216     CTL2    -0.180000       12.0110           0
     17053 MEMB     129      POPC     H16R     HAL2     0.900000E-01   1.00800           0
     17054 MEMB     129      POPC     H16S     HAL2     0.900000E-01   1.00800           0
     17055 MEMB     129      POPC     C217     CTL2    -0.180000       12.0110           0
     17056 MEMB     129      POPC     H17R     HAL2     0.900000E-01   1.00800           0
     17057 MEMB     129      POPC     H17S     HAL2     0.900000E-01   1.00800           0
     17058 MEMB     129      POPC     C218     CTL3    -0.270000       12.0110           0
     17059 MEMB     129      POPC     H18R     HAL3     0.900000E-01   1.00800           0
     17060 MEMB     129      POPC     H18S     HAL3     0.900000E-01   1.00800           0
     17061 MEMB     129      POPC     H18T     HAL3     0.900000E-01   1.00800           0
     17062 MEMB     129      POPC     C33      CTL2    -0.180000       12.0110           0
     17063 MEMB     129      POPC     H3X      HAL2     0.900000E-01   1.00800           0
     17064 MEMB     129      POPC     H3Y      HAL2     0.900000E-01   1.00800           0
     17065 MEMB     129      POPC     C34      CTL2    -0.180000       12.0110           0
     17066 MEMB     129      POPC     H4X      HAL2     0.900000E-01   1.00800           0
     17067 MEMB     129      POPC     H4Y      HAL2     0.900000E-01   1.00800           0
     17068 MEMB     129      POPC     C35      CTL2    -0.180000       12.0110           0
     17069 MEMB     129      POPC     H5X      HAL2     0.900000E-01   1.00800           0
     17070 MEMB     129      POPC     H5Y      HAL2     0.900000E-01   1.00800           0
     17071 MEMB     129      POPC     C36      CTL2    -0.180000       12.0110           0
     17072 MEMB     129      POPC     H6X      HAL2     0.900000E-01   1.00800           0
     17073 MEMB     129      POPC     H6Y      HAL2     0.900000E-01   1.00800           0
     17074 MEMB     129      POPC     C37      CTL2    -0.180000       12.0110           0
     17075 MEMB     129      POPC     H7X      HAL2     0.900000E-01   1.00800           0
     17076 MEMB     129      POPC     H7Y      HAL2     0.900000E-01   1.00800           0
     17077 MEMB     129      POPC     C38      CTL2    -0.180000       12.0110           0
     17078 MEMB     129      POPC     H8X      HAL2     0.900000E-01   1.00800           0
     17079 MEMB     129      POPC     H8Y      HAL2     0.900000E-01   1.00800           0
     17080 MEMB     129      POPC     C39      CTL2    -0.180000       12.0110           0
     17081 MEMB     129      POPC     H9X      HAL2     0.900000E-01   1.00800           0
     17082 MEMB     129      POPC     H9Y      HAL2     0.900000E-01   1.00800           0
     17083 MEMB     129      POPC     C310     CTL2    -0.180000       12.0110           0
     17084 MEMB     129      POPC     H10X     HAL2     0.900000E-01   1.00800           0
     17085 MEMB     129      POPC     H10Y     HAL2     0.900000E-01   1.00800           0
     17086 MEMB     129      POPC     C311     CTL2    -0.180000       12.0110           0
     17087 MEMB     129      POPC     H11X     HAL2     0.900000E-01   1.00800           0
     17088 MEMB     129      POPC     H11Y     HAL2     0.900000E-01   1.00800           0
     17089 MEMB     129      POPC     C312     CTL2    -0.180000       12.0110           0
     17090 MEMB     129      POPC     H12X     HAL2     0.900000E-01   1.00800           0
     17091 MEMB     129      POPC     H12Y     HAL2     0.900000E-01   1.00800           0
     17092 MEMB     129      POPC     C313     CTL2    -0.180000       12.0110           0
     17093 MEMB     129      POPC     H13X     HAL2     0.900000E-01   1.00800           0
     17094 MEMB     129      POPC     H13Y     HAL2     0.900000E-01   1.00800           0
     17095 MEMB     129      POPC     C314     CTL2    -0.180000       12.0110           0
     17096 MEMB     129      POPC     H14X     HAL2     0.900000E-01   1.00800           0
     17097 MEMB     129      POPC     H14Y     HAL2     0.900000E-01   1.00800           0
     17098 MEMB     129      POPC     C315     CTL2    -0.180000       12.0110           0
     17099 MEMB     129      POPC     H15X     HAL2     0.900000E-01   1.00800           0
     17100 MEMB     129      POPC     H15Y     HAL2     0.900000E-01   1.00800           0
     17101 MEMB     129      POPC     C316     CTL3    -0.270000       12.0110           0
     17102 MEMB     129      POPC     H16X     HAL3     0.900000E-01   1.00800           0
     17103 MEMB     129      POPC     H16Y     HAL3     0.900000E-01   1.00800           0
     17104 MEMB     129      POPC     H16Z     HAL3     0.900000E-01   1.00800           0
     17105 MEMB     130      POPC     N        NTL     -0.600000       14.0070           0
     17106 MEMB     130      POPC     C12      CTL2    -0.100000       12.0110           0
     17107 MEMB     130      POPC     H12A     HL       0.250000       1.00800           0
     17108 MEMB     130      POPC     H12B     HL       0.250000       1.00800           0
     17109 MEMB     130      POPC     C13      CTL5    -0.350000       12.0110           0
     17110 MEMB     130      POPC     H13A     HL       0.250000       1.00800           0
     17111 MEMB     130      POPC     H13B     HL       0.250000       1.00800           0
     17112 MEMB     130      POPC     H13C     HL       0.250000       1.00800           0
     17113 MEMB     130      POPC     C14      CTL5    -0.350000       12.0110           0
     17114 MEMB     130      POPC     H14A     HL       0.250000       1.00800           0
     17115 MEMB     130      POPC     H14B     HL       0.250000       1.00800           0
     17116 MEMB     130      POPC     H14C     HL       0.250000       1.00800           0
     17117 MEMB     130      POPC     C15      CTL5    -0.350000       12.0110           0
     17118 MEMB     130      POPC     H15A     HL       0.250000       1.00800           0
     17119 MEMB     130      POPC     H15B     HL       0.250000       1.00800           0
     17120 MEMB     130      POPC     H15C     HL       0.250000       1.00800           0
     17121 MEMB     130      POPC     C11      CTL2    -0.800000E-01   12.0110           0
     17122 MEMB     130      POPC     H11A     HAL2     0.900000E-01   1.00800           0
     17123 MEMB     130      POPC     H11B     HAL2     0.900000E-01   1.00800           0
     17124 MEMB     130      POPC     P        PL        1.50000       30.9740           0
     17125 MEMB     130      POPC     O13      O2L     -0.780000       15.9994           0
     17126 MEMB     130      POPC     O14      O2L     -0.780000       15.9994           0
     17127 MEMB     130      POPC     O12      OSLP    -0.570000       15.9994           0
     17128 MEMB     130      POPC     O11      OSLP    -0.570000       15.9994           0
     17129 MEMB     130      POPC     C1       CTL2    -0.800000E-01   12.0110           0
     17130 MEMB     130      POPC     HA       HAL2     0.900000E-01   1.00800           0
     17131 MEMB     130      POPC     HB       HAL2     0.900000E-01   1.00800           0
     17132 MEMB     130      POPC     C2       CTL1     0.170000       12.0110           0
     17133 MEMB     130      POPC     HS       HAL1     0.900000E-01   1.00800           0
     17134 MEMB     130      POPC     O21      OSL     -0.490000       15.9994           0
     17135 MEMB     130      POPC     C21      CL       0.900000       12.0110           0
     17136 MEMB     130      POPC     O22      OBL     -0.630000       15.9994           0
     17137 MEMB     130      POPC     C22      CTL2    -0.220000       12.0110           0
     17138 MEMB     130      POPC     H2R      HAL2     0.900000E-01   1.00800           0
     17139 MEMB     130      POPC     H2S      HAL2     0.900000E-01   1.00800           0
     17140 MEMB     130      POPC     C3       CTL2     0.800000E-01   12.0110           0
     17141 MEMB     130      POPC     HX       HAL2     0.900000E-01   1.00800           0
     17142 MEMB     130      POPC     HY       HAL2     0.900000E-01   1.00800           0
     17143 MEMB     130      POPC     O31      OSL     -0.490000       15.9994           0
     17144 MEMB     130      POPC     C31      CL       0.900000       12.0110           0
     17145 MEMB     130      POPC     O32      OBL     -0.630000       15.9994           0
     17146 MEMB     130      POPC     C32      CTL2    -0.220000       12.0110           0
     17147 MEMB     130      POPC     H2X      HAL2     0.900000E-01   1.00800           0
     17148 MEMB     130      POPC     H2Y      HAL2     0.900000E-01   1.00800           0
     17149 MEMB     130      POPC     C23      CTL2    -0.180000       12.0110           0
     17150 MEMB     130      POPC     H3R      HAL2     0.900000E-01   1.00800           0
     17151 MEMB     130      POPC     H3S      HAL2     0.900000E-01   1.00800           0
     17152 MEMB     130      POPC     C24      CTL2    -0.180000       12.0110           0
     17153 MEMB     130      POPC     H4R      HAL2     0.900000E-01   1.00800           0
     17154 MEMB     130      POPC     H4S      HAL2     0.900000E-01   1.00800           0
     17155 MEMB     130      POPC     C25      CTL2    -0.180000       12.0110           0
     17156 MEMB     130      POPC     H5R      HAL2     0.900000E-01   1.00800           0
     17157 MEMB     130      POPC     H5S      HAL2     0.900000E-01   1.00800           0
     17158 MEMB     130      POPC     C26      CTL2    -0.180000       12.0110           0
     17159 MEMB     130      POPC     H6R      HAL2     0.900000E-01   1.00800           0
     17160 MEMB     130      POPC     H6S      HAL2     0.900000E-01   1.00800           0
     17161 MEMB     130      POPC     C27      CTL2    -0.180000       12.0110           0
     17162 MEMB     130      POPC     H7R      HAL2     0.900000E-01   1.00800           0
     17163 MEMB     130      POPC     H7S      HAL2     0.900000E-01   1.00800           0
     17164 MEMB     130      POPC     C28      CTL2    -0.180000       12.0110           0
     17165 MEMB     130      POPC     H8R      HAL2     0.900000E-01   1.00800           0
     17166 MEMB     130      POPC     H8S      HAL2     0.900000E-01   1.00800           0
     17167 MEMB     130      POPC     C29      CEL1    -0.150000       12.0110           0
     17168 MEMB     130      POPC     H91      HEL1     0.150000       1.00800           0
     17169 MEMB     130      POPC     C210     CEL1    -0.150000       12.0110           0
     17170 MEMB     130      POPC     H101     HEL1     0.150000       1.00800           0
     17171 MEMB     130      POPC     C211     CTL2    -0.180000       12.0110           0
     17172 MEMB     130      POPC     H11R     HAL2     0.900000E-01   1.00800           0
     17173 MEMB     130      POPC     H11S     HAL2     0.900000E-01   1.00800           0
     17174 MEMB     130      POPC     C212     CTL2    -0.180000       12.0110           0
     17175 MEMB     130      POPC     H12R     HAL2     0.900000E-01   1.00800           0
     17176 MEMB     130      POPC     H12S     HAL2     0.900000E-01   1.00800           0
     17177 MEMB     130      POPC     C213     CTL2    -0.180000       12.0110           0
     17178 MEMB     130      POPC     H13R     HAL2     0.900000E-01   1.00800           0
     17179 MEMB     130      POPC     H13S     HAL2     0.900000E-01   1.00800           0
     17180 MEMB     130      POPC     C214     CTL2    -0.180000       12.0110           0
     17181 MEMB     130      POPC     H14R     HAL2     0.900000E-01   1.00800           0
     17182 MEMB     130      POPC     H14S     HAL2     0.900000E-01   1.00800           0
     17183 MEMB     130      POPC     C215     CTL2    -0.180000       12.0110           0
     17184 MEMB     130      POPC     H15R     HAL2     0.900000E-01   1.00800           0
     17185 MEMB     130      POPC     H15S     HAL2     0.900000E-01   1.00800           0
     17186 MEMB     130      POPC     C216     CTL2    -0.180000       12.0110           0
     17187 MEMB     130      POPC     H16R     HAL2     0.900000E-01   1.00800           0
     17188 MEMB     130      POPC     H16S     HAL2     0.900000E-01   1.00800           0
     17189 MEMB     130      POPC     C217     CTL2    -0.180000       12.0110           0
     17190 MEMB     130      POPC     H17R     HAL2     0.900000E-01   1.00800           0
     17191 MEMB     130      POPC     H17S     HAL2     0.900000E-01   1.00800           0
     17192 MEMB     130      POPC     C218     CTL3    -0.270000       12.0110           0
     17193 MEMB     130      POPC     H18R     HAL3     0.900000E-01   1.00800           0
     17194 MEMB     130      POPC     H18S     HAL3     0.900000E-01   1.00800           0
     17195 MEMB     130      POPC     H18T     HAL3     0.900000E-01   1.00800           0
     17196 MEMB     130      POPC     C33      CTL2    -0.180000       12.0110           0
     17197 MEMB     130      POPC     H3X      HAL2     0.900000E-01   1.00800           0
     17198 MEMB     130      POPC     H3Y      HAL2     0.900000E-01   1.00800           0
     17199 MEMB     130      POPC     C34      CTL2    -0.180000       12.0110           0
     17200 MEMB     130      POPC     H4X      HAL2     0.900000E-01   1.00800           0
     17201 MEMB     130      POPC     H4Y      HAL2     0.900000E-01   1.00800           0
     17202 MEMB     130      POPC     C35      CTL2    -0.180000       12.0110           0
     17203 MEMB     130      POPC     H5X      HAL2     0.900000E-01   1.00800           0
     17204 MEMB     130      POPC     H5Y      HAL2     0.900000E-01   1.00800           0
     17205 MEMB     130      POPC     C36      CTL2    -0.180000       12.0110           0
     17206 MEMB     130      POPC     H6X      HAL2     0.900000E-01   1.00800           0
     17207 MEMB     130      POPC     H6Y      HAL2     0.900000E-01   1.00800           0
     17208 MEMB     130      POPC     C37      CTL2    -0.180000       12.0110           0
     17209 MEMB     130      POPC     H7X      HAL2     0.900000E-01   1.00800           0
     17210 MEMB     130      POPC     H7Y      HAL2     0.900000E-01   1.00800           0
     17211 MEMB     130      POPC     C38      CTL2    -0.180000       12.0110           0
     17212 MEMB     130      POPC     H8X      HAL2     0.900000E-01   1.00800           0
     17213 MEMB     130      POPC     H8Y      HAL2     0.900000E-01   1.00800           0
     17214 MEMB     130      POPC     C39      CTL2    -0.180000       12.0110           0
     17215 MEMB     130      POPC     H9X      HAL2     0.900000E-01   1.00800           0
     17216 MEMB     130      POPC     H9Y      HAL2     0.900000E-01   1.00800           0
     17217 MEMB     130      POPC     C310     CTL2    -0.180000       12.0110           0
     17218 MEMB     130      POPC     H10X     HAL2     0.900000E-01   1.00800           0
     17219 MEMB     130      POPC     H10Y     HAL2     0.900000E-01   1.00800           0
     17220 MEMB     130      POPC     C311     CTL2    -0.180000       12.0110           0
     17221 MEMB     130      POPC     H11X     HAL2     0.900000E-01   1.00800           0
     17222 MEMB     130      POPC     H11Y     HAL2     0.900000E-01   1.00800           0
     17223 MEMB     130      POPC     C312     CTL2    -0.180000       12.0110           0
     17224 MEMB     130      POPC     H12X     HAL2     0.900000E-01   1.00800           0
     17225 MEMB     130      POPC     H12Y     HAL2     0.900000E-01   1.00800           0
     17226 MEMB     130      POPC     C313     CTL2    -0.180000       12.0110           0
     17227 MEMB     130      POPC     H13X     HAL2     0.900000E-01   1.00800           0
     17228 MEMB     130      POPC     H13Y     HAL2     0.900000E-01   1.00800           0
     17229 MEMB     130      POPC     C314     CTL2    -0.180000       12.0110           0
     17230 MEMB     130      POPC     H14X     HAL2     0.900000E-01   1.00800           0
     17231 MEMB     130      POPC     H14Y     HAL2     0.900000E-01   1.00800           0
     17232 MEMB     130      POPC     C315     CTL2    -0.180000       12.0110           0
     17233 MEMB     130      POPC     H15X     HAL2     0.900000E-01   1.00800           0
     17234 MEMB     130      POPC     H15Y     HAL2     0.900000E-01   1.00800           0
     17235 MEMB     130      POPC     C316     CTL3    -0.270000       12.0110           0
     17236 MEMB     130      POPC     H16X     HAL3     0.900000E-01   1.00800           0
     17237 MEMB     130      POPC     H16Y     HAL3     0.900000E-01   1.00800           0
     17238 MEMB     130      POPC     H16Z     HAL3     0.900000E-01   1.00800           0
     17239 TIP3     1        TIP3     OH2      OT      -0.834000       15.9994           0
     17240 TIP3     1        TIP3     H1       HT       0.417000       1.00800           0
     17241 TIP3     1        TIP3     H2       HT       0.417000       1.00800           0
     17242 TIP3     2        TIP3     OH2      OT      -0.834000       15.9994           0
     17243 TIP3     2        TIP3     H1       HT       0.417000       1.00800           0
     17244 TIP3     2        TIP3     H2       HT       0.417000       1.00800           0
     17245 TIP3     3        TIP3     OH2      OT      -0.834000       15.9994           0
     17246 TIP3     3        TIP3     H1       HT       0.417000       1.00800           0
     17247 TIP3     3        TIP3     H2       HT       0.417000       1.00800           0
     17248 TIP3     4        TIP3     OH2      OT      -0.834000       15.9994           0
     17249 TIP3     4        TIP3     H1       HT       0.417000       1.00800           0
     17250 TIP3     4        TIP3     H2       HT       0.417000       1.00800           0
     17251 TIP3     5        TIP3     OH2      OT      -0.834000       15.9994           0
     17252 TIP3     5        TIP3     H1       HT       0.417000       1.00800           0
     17253 TIP3     5        TIP3     H2       HT       0.417000       1.00800           0
     17254 TIP3     6        TIP3     OH2      OT      -0.834000       15.9994           0
     17255 TIP3     6        TIP3     H1       HT       0.417000       1.00800           0
     17256 TIP3     6        TIP3     H2       HT       0.417000       1.00800           0
     17257 TIP3     7        TIP3     OH2      OT      -0.834000       15.9994           0
     17258 TIP3     7        TIP3     H1       HT       0.417000       1.00800           0
     17259 TIP3     7        TIP3     H2       HT       0.417000       1.00800           0
     17260 TIP3     8        TIP3     OH2      OT      -0.834000       15.9994           0
     17261 TIP3     8        TIP3     H1       HT       0.417000       1.00800           0
     17262 TIP3     8        TIP3     H2       HT       0.417000       1.00800           0
     17263 TIP3     9        TIP3     OH2      OT      -0.834000       15.9994           0
     17264 TIP3     9        TIP3     H1       HT       0.417000       1.00800           0
     17265 TIP3     9        TIP3     H2       HT       0.417000       1.00800           0
     17266 TIP3     10       TIP3     OH2      OT      -0.834000       15.9994           0
     17267 TIP3     10       TIP3     H1       HT       0.417000       1.00800           0
     17268 TIP3     10       TIP3     H2       HT       0.417000       1.00800           0
     17269 TIP3     11       TIP3     OH2      OT      -0.834000       15.9994           0
     17270 TIP3     11       TIP3     H1       HT       0.417000       1.00800           0
     17271 TIP3     11       TIP3     H2       HT       0.417000       1.00800           0
     17272 TIP3     12       TIP3     OH2      OT      -0.834000       15.9994           0
     17273 TIP3     12       TIP3     H1       HT       0.417000       1.00800           0
     17274 TIP3     12       TIP3     H2       HT       0.417000       1.00800           0
     17275 TIP3     13       TIP3     OH2      OT      -0.834000       15.9994           0
     17276 TIP3     13       TIP3     H1       HT       0.417000       1.00800           0
     17277 TIP3     13       TIP3     H2       HT       0.417000       1.00800           0
     17278 TIP3     14       TIP3     OH2      OT      -0.834000       15.9994           0
     17279 TIP3     14       TIP3     H1       HT       0.417000       1.00800           0
     17280 TIP3     14       TIP3     H2       HT       0.417000       1.00800           0
     17281 TIP3     15       TIP3     OH2      OT      -0.834000       15.9994           0
     17282 TIP3     15       TIP3     H1       HT       0.417000       1.00800           0
     17283 TIP3     15       TIP3     H2       HT       0.417000       1.00800           0
     17284 TIP3     16       TIP3     OH2      OT      -0.834000       15.9994           0
     17285 TIP3     16       TIP3     H1       HT       0.417000       1.00800           0
     17286 TIP3     16       TIP3     H2       HT       0.417000       1.00800           0
     17287 TIP3     17       TIP3     OH2      OT      -0.834000       15.9994           0
     17288 TIP3     17       TIP3     H1       HT       0.417000       1.00800           0
     17289 TIP3     17       TIP3     H2       HT       0.417000       1.00800           0
     17290 TIP3     18       TIP3     OH2      OT      -0.834000       15.9994           0
     17291 TIP3     18       TIP3     H1       HT       0.417000       1.00800           0
     17292 TIP3     18       TIP3     H2       HT       0.417000       1.00800           0
     17293 TIP3     19       TIP3     OH2      OT      -0.834000       15.9994           0
     17294 TIP3     19       TIP3     H1       HT       0.417000       1.00800           0
     17295 TIP3     19       TIP3     H2       HT       0.417000       1.00800           0
     17296 TIP3     20       TIP3     OH2      OT      -0.834000       15.9994           0
     17297 TIP3     20       TIP3     H1       HT       0.417000       1.00800           0
     17298 TIP3     20       TIP3     H2       HT       0.417000       1.00800           0
     17299 TIP3     21       TIP3     OH2      OT      -0.834000       15.9994           0
     17300 TIP3     21       TIP3     H1       HT       0.417000       1.00800           0
     17301 TIP3     21       TIP3     H2       HT       0.417000       1.00800           0
     17302 TIP3     22       TIP3     OH2      OT      -0.834000       15.9994           0
     17303 TIP3     22       TIP3     H1       HT       0.417000       1.00800           0
     17304 TIP3     22       TIP3     H2       HT       0.417000       1.00800           0
     17305 TIP3     23       TIP3     OH2      OT      -0.834000       15.9994           0
     17306 TIP3     23       TIP3     H1       HT       0.417000       1.00800           0
     17307 TIP3     23       TIP3     H2       HT       0.417000       1.00800           0
     17308 TIP3     24       TIP3     OH2      OT      -0.834000       15.9994           0
     17309 TIP3     24       TIP3     H1       HT       0.417000       1.00800           0
     17310 TIP3     24       TIP3     H2       HT       0.417000       1.00800           0
     17311 TIP3     25       TIP3     OH2      OT      -0.834000       15.9994           0
     17312 TIP3     25       TIP3     H1       HT       0.417000       1.00800           0
     17313 TIP3     25       TIP3     H2       HT       0.417000       1.00800           0
     17314 TIP3     26       TIP3     OH2      OT      -0.834000       15.9994           0
     17315 TIP3     26       TIP3     H1       HT       0.417000       1.00800           0
     17316 TIP3     26       TIP3     H2       HT       0.417000       1.00800           0
     17317 TIP3     27       TIP3     OH2      OT      -0.834000       15.9994           0
     17318 TIP3     27       TIP3     H1       HT       0.417000       1.00800           0
     17319 TIP3     27       TIP3     H2       HT       0.417000       1.00800           0
     17320 TIP3     28       TIP3     OH2      OT      -0.834000       15.9994           0
     17321 TIP3     28       TIP3     H1       HT       0.417000       1.00800           0
     17322 TIP3     28       TIP3     H2       HT       0.417000       1.00800           0
     17323 TIP3     29       TIP3     OH2      OT      -0.834000       15.9994           0
     17324 TIP3     29       TIP3     H1       HT       0.417000       1.00800           0
     17325 TIP3     29       TIP3     H2       HT       0.417000       1.00800           0
     17326 TIP3     30       TIP3     OH2      OT      -0.834000       15.9994           0
     17327 TIP3     30       TIP3     H1       HT       0.417000       1.00800           0
     17328 TIP3     30       TIP3     H2       HT       0.417000       1.00800           0
     17329 TIP3     31       TIP3     OH2      OT      -0.834000       15.9994           0
     17330 TIP3     31       TIP3     H1       HT       0.417000       1.00800           0
     17331 TIP3     31       TIP3     H2       HT       0.417000       1.00800           0
     17332 TIP3     32       TIP3     OH2      OT      -0.834000       15.9994           0
     17333 TIP3     32       TIP3     H1       HT       0.417000       1.00800           0
     17334 TIP3     32       TIP3     H2       HT       0.417000       1.00800           0
     17335 TIP3     33       TIP3     OH2      OT      -0.834000       15.9994           0
     17336 TIP3     33       TIP3     H1       HT       0.417000       1.00800           0
     17337 TIP3     33       TIP3     H2       HT       0.417000       1.00800           0
     17338 TIP3     34       TIP3     OH2      OT      -0.834000       15.9994           0
     17339 TIP3     34       TIP3     H1       HT       0.417000       1.00800           0
     17340 TIP3     34       TIP3     H2       HT       0.417000       1.00800           0
     17341 TIP3     35       TIP3     OH2      OT      -0.834000       15.9994           0
     17342 TIP3     35       TIP3     H1       HT       0.417000       1.00800           0
     17343 TIP3     35       TIP3     H2       HT       0.417000       1.00800           0
     17344 TIP3     36       TIP3     OH2      OT      -0.834000       15.9994           0
     17345 TIP3     36       TIP3     H1       HT       0.417000       1.00800           0
     17346 TIP3     36       TIP3     H2       HT       0.417000       1.00800           0
     17347 TIP3     37       TIP3     OH2      OT      -0.834000       15.9994           0
     17348 TIP3     37       TIP3     H1       HT       0.417000       1.00800           0
     17349 TIP3     37       TIP3     H2       HT       0.417000       1.00800           0
     17350 TIP3     38       TIP3     OH2      OT      -0.834000       15.9994           0
     17351 TIP3     38       TIP3     H1       HT       0.417000       1.00800           0
     17352 TIP3     38       TIP3     H2       HT       0.417000       1.00800           0
     17353 TIP3     39       TIP3     OH2      OT      -0.834000       15.9994           0
     17354 TIP3     39       TIP3     H1       HT       0.417000       1.00800           0
     17355 TIP3     39       TIP3     H2       HT       0.417000       1.00800           0
     17356 TIP3     40       TIP3     OH2      OT      -0.834000       15.9994           0
     17357 TIP3     40       TIP3     H1       HT       0.417000       1.00800           0
     17358 TIP3     40       TIP3     H2       HT       0.417000       1.00800           0
     17359 TIP3     41       TIP3     OH2      OT      -0.834000       15.9994           0
     17360 TIP3     41       TIP3     H1       HT       0.417000       1.00800           0
     17361 TIP3     41       TIP3     H2       HT       0.417000       1.00800           0
     17362 TIP3     42       TIP3     OH2      OT      -0.834000       15.9994           0
     17363 TIP3     42       TIP3     H1       HT       0.417000       1.00800           0
     17364 TIP3     42       TIP3     H2       HT       0.417000       1.00800           0
     17365 TIP3     43       TIP3     OH2      OT      -0.834000       15.9994           0
     17366 TIP3     43       TIP3     H1       HT       0.417000       1.00800           0
     17367 TIP3     43       TIP3     H2       HT       0.417000       1.00800           0
     17368 TIP3     44       TIP3     OH2      OT      -0.834000       15.9994           0
     17369 TIP3     44       TIP3     H1       HT       0.417000       1.00800           0
     17370 TIP3     44       TIP3     H2       HT       0.417000       1.00800           0
     17371 TIP3     45       TIP3     OH2      OT      -0.834000       15.9994           0
     17372 TIP3     45       TIP3     H1       HT       0.417000       1.00800           0
     17373 TIP3     45       TIP3     H2       HT       0.417000       1.00800           0
     17374 TIP3     46       TIP3     OH2      OT      -0.834000       15.9994           0
     17375 TIP3     46       TIP3     H1       HT       0.417000       1.00800           0
     17376 TIP3     46       TIP3     H2       HT       0.417000       1.00800           0
     17377 TIP3     47       TIP3     OH2      OT      -0.834000       15.9994           0
     17378 TIP3     47       TIP3     H1       HT       0.417000       1.00800           0
     17379 TIP3     47       TIP3     H2       HT       0.417000       1.00800           0
     17380 TIP3     48       TIP3     OH2      OT      -0.834000       15.9994           0
     17381 TIP3     48       TIP3     H1       HT       0.417000       1.00800           0
     17382 TIP3     48       TIP3     H2       HT       0.417000       1.00800           0
     17383 TIP3     49       TIP3     OH2      OT      -0.834000       15.9994           0
     17384 TIP3     49       TIP3     H1       HT       0.417000       1.00800           0
     17385 TIP3     49       TIP3     H2       HT       0.417000       1.00800           0
     17386 TIP3     50       TIP3     OH2      OT      -0.834000       15.9994           0
     17387 TIP3     50       TIP3     H1       HT       0.417000       1.00800           0
     17388 TIP3     50       TIP3     H2       HT       0.417000       1.00800           0
     17389 TIP3     51       TIP3     OH2      OT      -0.834000       15.9994           0
     17390 TIP3     51       TIP3     H1       HT       0.417000       1.00800           0
     17391 TIP3     51       TIP3     H2       HT       0.417000       1.00800           0
     17392 TIP3     52       TIP3     OH2      OT      -0.834000       15.9994           0
     17393 TIP3     52       TIP3     H1       HT       0.417000       1.00800           0
     17394 TIP3     52       TIP3     H2       HT       0.417000       1.00800           0
     17395 TIP3     53       TIP3     OH2      OT      -0.834000       15.9994           0
     17396 TIP3     53       TIP3     H1       HT       0.417000       1.00800           0
     17397 TIP3     53       TIP3     H2       HT       0.417000       1.00800           0
     17398 TIP3     54       TIP3     OH2      OT      -0.834000       15.9994           0
     17399 TIP3     54       TIP3     H1       HT       0.417000       1.00800           0
     17400 TIP3     54       TIP3     H2       HT       0.417000       1.00800           0
     17401 TIP3     55       TIP3     OH2      OT      -0.834000       15.9994           0
     17402 TIP3     55       TIP3     H1       HT       0.417000       1.00800           0
     17403 TIP3     55       TIP3     H2       HT       0.417000       1.00800           0
     17404 TIP3     56       TIP3     OH2      OT      -0.834000       15.9994           0
     17405 TIP3     56       TIP3     H1       HT       0.417000       1.00800           0
     17406 TIP3     56       TIP3     H2       HT       0.417000       1.00800           0
     17407 TIP3     57       TIP3     OH2      OT      -0.834000       15.9994           0
     17408 TIP3     57       TIP3     H1       HT       0.417000       1.00800           0
     17409 TIP3     57       TIP3     H2       HT       0.417000       1.00800           0
     17410 TIP3     58       TIP3     OH2      OT      -0.834000       15.9994           0
     17411 TIP3     58       TIP3     H1       HT       0.417000       1.00800           0
     17412 TIP3     58       TIP3     H2       HT       0.417000       1.00800           0
     17413 TIP3     59       TIP3     OH2      OT      -0.834000       15.9994           0
     17414 TIP3     59       TIP3     H1       HT       0.417000       1.00800           0
     17415 TIP3     59       TIP3     H2       HT       0.417000       1.00800           0
     17416 TIP3     60       TIP3     OH2      OT      -0.834000       15.9994           0
     17417 TIP3     60       TIP3     H1       HT       0.417000       1.00800           0
     17418 TIP3     60       TIP3     H2       HT       0.417000       1.00800           0
     17419 TIP3     61       TIP3     OH2      OT      -0.834000       15.9994           0
     17420 TIP3     61       TIP3     H1       HT       0.417000       1.00800           0
     17421 TIP3     61       TIP3     H2       HT       0.417000       1.00800           0
     17422 TIP3     62       TIP3     OH2      OT      -0.834000       15.9994           0
     17423 TIP3     62       TIP3     H1       HT       0.417000       1.00800           0
     17424 TIP3     62       TIP3     H2       HT       0.417000       1.00800           0
     17425 TIP3     63       TIP3     OH2      OT      -0.834000       15.9994           0
     17426 TIP3     63       TIP3     H1       HT       0.417000       1.00800           0
     17427 TIP3     63       TIP3     H2       HT       0.417000       1.00800           0
     17428 TIP3     64       TIP3     OH2      OT      -0.834000       15.9994           0
     17429 TIP3     64       TIP3     H1       HT       0.417000       1.00800           0
     17430 TIP3     64       TIP3     H2       HT       0.417000       1.00800           0
     17431 TIP3     65       TIP3     OH2      OT      -0.834000       15.9994           0
     17432 TIP3     65       TIP3     H1       HT       0.417000       1.00800           0
     17433 TIP3     65       TIP3     H2       HT       0.417000       1.00800           0
     17434 TIP3     66       TIP3     OH2      OT      -0.834000       15.9994           0
     17435 TIP3     66       TIP3     H1       HT       0.417000       1.00800           0
     17436 TIP3     66       TIP3     H2       HT       0.417000       1.00800           0
     17437 TIP3     67       TIP3     OH2      OT      -0.834000       15.9994           0
     17438 TIP3     67       TIP3     H1       HT       0.417000       1.00800           0
     17439 TIP3     67       TIP3     H2       HT       0.417000       1.00800           0
     17440 TIP3     68       TIP3     OH2      OT      -0.834000       15.9994           0
     17441 TIP3     68       TIP3     H1       HT       0.417000       1.00800           0
     17442 TIP3     68       TIP3     H2       HT       0.417000       1.00800           0
     17443 TIP3     69       TIP3     OH2      OT      -0.834000       15.9994           0
     17444 TIP3     69       TIP3     H1       HT       0.417000       1.00800           0
     17445 TIP3     69       TIP3     H2       HT       0.417000       1.00800           0
     17446 TIP3     70       TIP3     OH2      OT      -0.834000       15.9994           0
     17447 TIP3     70       TIP3     H1       HT       0.417000       1.00800           0
     17448 TIP3     70       TIP3     H2       HT       0.417000       1.00800           0
     17449 TIP3     71       TIP3     OH2      OT      -0.834000       15.9994           0
     17450 TIP3     71       TIP3     H1       HT       0.417000       1.00800           0
     17451 TIP3     71       TIP3     H2       HT       0.417000       1.00800           0
     17452 TIP3     72       TIP3     OH2      OT      -0.834000       15.9994           0
     17453 TIP3     72       TIP3     H1       HT       0.417000       1.00800           0
     17454 TIP3     72       TIP3     H2       HT       0.417000       1.00800           0
     17455 TIP3     73       TIP3     OH2      OT      -0.834000       15.9994           0
     17456 TIP3     73       TIP3     H1       HT       0.417000       1.00800           0
     17457 TIP3     73       TIP3     H2       HT       0.417000       1.00800           0
     17458 TIP3     74       TIP3     OH2      OT      -0.834000       15.9994           0
     17459 TIP3     74       TIP3     H1       HT       0.417000       1.00800           0
     17460 TIP3     74       TIP3     H2       HT       0.417000       1.00800           0
     17461 TIP3     75       TIP3     OH2      OT      -0.834000       15.9994           0
     17462 TIP3     75       TIP3     H1       HT       0.417000       1.00800           0
     17463 TIP3     75       TIP3     H2       HT       0.417000       1.00800           0
     17464 TIP3     76       TIP3     OH2      OT      -0.834000       15.9994           0
     17465 TIP3     76       TIP3     H1       HT       0.417000       1.00800           0
     17466 TIP3     76       TIP3     H2       HT       0.417000       1.00800           0
     17467 TIP3     77       TIP3     OH2      OT      -0.834000       15.9994           0
     17468 TIP3     77       TIP3     H1       HT       0.417000       1.00800           0
     17469 TIP3     77       TIP3     H2       HT       0.417000       1.00800           0
     17470 TIP3     78       TIP3     OH2      OT      -0.834000       15.9994           0
     17471 TIP3     78       TIP3     H1       HT       0.417000       1.00800           0
     17472 TIP3     78       TIP3     H2       HT       0.417000       1.00800           0
     17473 TIP3     79       TIP3     OH2      OT      -0.834000       15.9994           0
     17474 TIP3     79       TIP3     H1       HT       0.417000       1.00800           0
     17475 TIP3     79       TIP3     H2       HT       0.417000       1.00800           0
     17476 TIP3     80       TIP3     OH2      OT      -0.834000       15.9994           0
     17477 TIP3     80       TIP3     H1       HT       0.417000       1.00800           0
     17478 TIP3     80       TIP3     H2       HT       0.417000       1.00800           0
     17479 TIP3     81       TIP3     OH2      OT      -0.834000       15.9994           0
     17480 TIP3     81       TIP3     H1       HT       0.417000       1.00800           0
     17481 TIP3     81       TIP3     H2       HT       0.417000       1.00800           0
     17482 TIP3     82       TIP3     OH2      OT      -0.834000       15.9994           0
     17483 TIP3     82       TIP3     H1       HT       0.417000       1.00800           0
     17484 TIP3     82       TIP3     H2       HT       0.417000       1.00800           0
     17485 TIP3     83       TIP3     OH2      OT      -0.834000       15.9994           0
     17486 TIP3     83       TIP3     H1       HT       0.417000       1.00800           0
     17487 TIP3     83       TIP3     H2       HT       0.417000       1.00800           0
     17488 TIP3     84       TIP3     OH2      OT      -0.834000       15.9994           0
     17489 TIP3     84       TIP3     H1       HT       0.417000       1.00800           0
     17490 TIP3     84       TIP3     H2       HT       0.417000       1.00800           0
     17491 TIP3     85       TIP3     OH2      OT      -0.834000       15.9994           0
     17492 TIP3     85       TIP3     H1       HT       0.417000       1.00800           0
     17493 TIP3     85       TIP3     H2       HT       0.417000       1.00800           0
     17494 TIP3     86       TIP3     OH2      OT      -0.834000       15.9994           0
     17495 TIP3     86       TIP3     H1       HT       0.417000       1.00800           0
     17496 TIP3     86       TIP3     H2       HT       0.417000       1.00800           0
     17497 TIP3     87       TIP3     OH2      OT      -0.834000       15.9994           0
     17498 TIP3     87       TIP3     H1       HT       0.417000       1.00800           0
     17499 TIP3     87       TIP3     H2       HT       0.417000       1.00800           0
     17500 TIP3     88       TIP3     OH2      OT      -0.834000       15.9994           0
     17501 TIP3     88       TIP3     H1       HT       0.417000       1.00800           0
     17502 TIP3     88       TIP3     H2       HT       0.417000       1.00800           0
     17503 TIP3     89       TIP3     OH2      OT      -0.834000       15.9994           0
     17504 TIP3     89       TIP3     H1       HT       0.417000       1.00800           0
     17505 TIP3     89       TIP3     H2       HT       0.417000       1.00800           0
     17506 TIP3     90       TIP3     OH2      OT      -0.834000       15.9994           0
     17507 TIP3     90       TIP3     H1       HT       0.417000       1.00800           0
     17508 TIP3     90       TIP3     H2       HT       0.417000       1.00800           0
     17509 TIP3     91       TIP3     OH2      OT      -0.834000       15.9994           0
     17510 TIP3     91       TIP3     H1       HT       0.417000       1.00800           0
     17511 TIP3     91       TIP3     H2       HT       0.417000       1.00800           0
     17512 TIP3     92       TIP3     OH2      OT      -0.834000       15.9994           0
     17513 TIP3     92       TIP3     H1       HT       0.417000       1.00800           0
     17514 TIP3     92       TIP3     H2       HT       0.417000       1.00800           0
     17515 TIP3     93       TIP3     OH2      OT      -0.834000       15.9994           0
     17516 TIP3     93       TIP3     H1       HT       0.417000       1.00800           0
     17517 TIP3     93       TIP3     H2       HT       0.417000       1.00800           0
     17518 TIP3     94       TIP3     OH2      OT      -0.834000       15.9994           0
     17519 TIP3     94       TIP3     H1       HT       0.417000       1.00800           0
     17520 TIP3     94       TIP3     H2       HT       0.417000       1.00800           0
     17521 TIP3     95       TIP3     OH2      OT      -0.834000       15.9994           0
     17522 TIP3     95       TIP3     H1       HT       0.417000       1.00800           0
     17523 TIP3     95       TIP3     H2       HT       0.417000       1.00800           0
     17524 TIP3     96       TIP3     OH2      OT      -0.834000       15.9994           0
     17525 TIP3     96       TIP3     H1       HT       0.417000       1.00800           0
     17526 TIP3     96       TIP3     H2       HT       0.417000       1.00800           0
     17527 TIP3     97       TIP3     OH2      OT      -0.834000       15.9994           0
     17528 TIP3     97       TIP3     H1       HT       0.417000       1.00800           0
     17529 TIP3     97       TIP3     H2       HT       0.417000       1.00800           0
     17530 TIP3     98       TIP3     OH2      OT      -0.834000       15.9994           0
     17531 TIP3     98       TIP3     H1       HT       0.417000       1.00800           0
     17532 TIP3     98       TIP3     H2       HT       0.417000       1.00800           0
     17533 TIP3     99       TIP3     OH2      OT      -0.834000       15.9994           0
     17534 TIP3     99       TIP3     H1       HT       0.417000       1.00800           0
     17535 TIP3     99       TIP3     H2       HT       0.417000       1.00800           0
     17536 TIP3     100      TIP3     OH2      OT      -0.834000       15.9994           0
     17537 TIP3     100      TIP3     H1       HT       0.417000       1.00800           0
     17538 TIP3     100      TIP3     H2       HT       0.417000       1.00800           0
     17539 TIP3     101      TIP3     OH2      OT      -0.834000       15.9994           0
     17540 TIP3     101      TIP3     H1       HT       0.417000       1.00800           0
     17541 TIP3     101      TIP3     H2       HT       0.417000       1.00800           0
     17542 TIP3     102      TIP3     OH2      OT      -0.834000       15.9994           0
     17543 TIP3     102      TIP3     H1       HT       0.417000       1.00800           0
     17544 TIP3     102      TIP3     H2       HT       0.417000       1.00800           0
     17545 TIP3     103      TIP3     OH2      OT      -0.834000       15.9994           0
     17546 TIP3     103      TIP3     H1       HT       0.417000       1.00800           0
     17547 TIP3     103      TIP3     H2       HT       0.417000       1.00800           0
     17548 TIP3     104      TIP3     OH2      OT      -0.834000       15.9994           0
     17549 TIP3     104      TIP3     H1       HT       0.417000       1.00800           0
     17550 TIP3     104      TIP3     H2       HT       0.417000       1.00800           0
     17551 TIP3     105      TIP3     OH2      OT      -0.834000       15.9994           0
     17552 TIP3     105      TIP3     H1       HT       0.417000       1.00800           0
     17553 TIP3     105      TIP3     H2       HT       0.417000       1.00800           0
     17554 TIP3     106      TIP3     OH2      OT      -0.834000       15.9994           0
     17555 TIP3     106      TIP3     H1       HT       0.417000       1.00800           0
     17556 TIP3     106      TIP3     H2       HT       0.417000       1.00800           0
     17557 TIP3     107      TIP3     OH2      OT      -0.834000       15.9994           0
     17558 TIP3     107      TIP3     H1       HT       0.417000       1.00800           0
     17559 TIP3     107      TIP3     H2       HT       0.417000       1.00800           0
     17560 TIP3     108      TIP3     OH2      OT      -0.834000       15.9994           0
     17561 TIP3     108      TIP3     H1       HT       0.417000       1.00800           0
     17562 TIP3     108      TIP3     H2       HT       0.417000       1.00800           0
     17563 TIP3     109      TIP3     OH2      OT      -0.834000       15.9994           0
     17564 TIP3     109      TIP3     H1       HT       0.417000       1.00800           0
     17565 TIP3     109      TIP3     H2       HT       0.417000       1.00800           0
     17566 TIP3     110      TIP3     OH2      OT      -0.834000       15.9994           0
     17567 TIP3     110      TIP3     H1       HT       0.417000       1.00800           0
     17568 TIP3     110      TIP3     H2       HT       0.417000       1.00800           0
     17569 TIP3     111      TIP3     OH2      OT      -0.834000       15.9994           0
     17570 TIP3     111      TIP3     H1       HT       0.417000       1.00800           0
     17571 TIP3     111      TIP3     H2       HT       0.417000       1.00800           0
     17572 TIP3     112      TIP3     OH2      OT      -0.834000       15.9994           0
     17573 TIP3     112      TIP3     H1       HT       0.417000       1.00800           0
     17574 TIP3     112      TIP3     H2       HT       0.417000       1.00800           0
     17575 TIP3     113      TIP3     OH2      OT      -0.834000       15.9994           0
     17576 TIP3     113      TIP3     H1       HT       0.417000       1.00800           0
     17577 TIP3     113      TIP3     H2       HT       0.417000       1.00800           0
     17578 TIP3     114      TIP3     OH2      OT      -0.834000       15.9994           0
     17579 TIP3     114      TIP3     H1       HT       0.417000       1.00800           0
     17580 TIP3     114      TIP3     H2       HT       0.417000       1.00800           0
     17581 TIP3     115      TIP3     OH2      OT      -0.834000       15.9994           0
     17582 TIP3     115      TIP3     H1       HT       0.417000       1.00800           0
     17583 TIP3     115      TIP3     H2       HT       0.417000       1.00800           0
     17584 TIP3     116      TIP3     OH2      OT      -0.834000       15.9994           0
     17585 TIP3     116      TIP3     H1       HT       0.417000       1.00800           0
     17586 TIP3     116      TIP3     H2       HT       0.417000       1.00800           0
     17587 TIP3     117      TIP3     OH2      OT      -0.834000       15.9994           0
     17588 TIP3     117      TIP3     H1       HT       0.417000       1.00800           0
     17589 TIP3     117      TIP3     H2       HT       0.417000       1.00800           0
     17590 TIP3     118      TIP3     OH2      OT      -0.834000       15.9994           0
     17591 TIP3     118      TIP3     H1       HT       0.417000       1.00800           0
     17592 TIP3     118      TIP3     H2       HT       0.417000       1.00800           0
     17593 TIP3     119      TIP3     OH2      OT      -0.834000       15.9994           0
     17594 TIP3     119      TIP3     H1       HT       0.417000       1.00800           0
     17595 TIP3     119      TIP3     H2       HT       0.417000       1.00800           0
     17596 TIP3     120      TIP3     OH2      OT      -0.834000       15.9994           0
     17597 TIP3     120      TIP3     H1       HT       0.417000       1.00800           0
     17598 TIP3     120      TIP3     H2       HT       0.417000       1.00800           0
     17599 TIP3     121      TIP3     OH2      OT      -0.834000       15.9994           0
     17600 TIP3     121      TIP3     H1       HT       0.417000       1.00800           0
     17601 TIP3     121      TIP3     H2       HT       0.417000       1.00800           0
     17602 TIP3     122      TIP3     OH2      OT      -0.834000       15.9994           0
     17603 TIP3     122      TIP3     H1       HT       0.417000       1.00800           0
     17604 TIP3     122      TIP3     H2       HT       0.417000       1.00800           0
     17605 TIP3     123      TIP3     OH2      OT      -0.834000       15.9994           0
     17606 TIP3     123      TIP3     H1       HT       0.417000       1.00800           0
     17607 TIP3     123      TIP3     H2       HT       0.417000       1.00800           0
     17608 TIP3     124      TIP3     OH2      OT      -0.834000       15.9994           0
     17609 TIP3     124      TIP3     H1       HT       0.417000       1.00800           0
     17610 TIP3     124      TIP3     H2       HT       0.417000       1.00800           0
     17611 TIP3     125      TIP3     OH2      OT      -0.834000       15.9994           0
     17612 TIP3     125      TIP3     H1       HT       0.417000       1.00800           0
     17613 TIP3     125      TIP3     H2       HT       0.417000       1.00800           0
     17614 TIP3     126      TIP3     OH2      OT      -0.834000       15.9994           0
     17615 TIP3     126      TIP3     H1       HT       0.417000       1.00800           0
     17616 TIP3     126      TIP3     H2       HT       0.417000       1.00800           0
     17617 TIP3     127      TIP3     OH2      OT      -0.834000       15.9994           0
     17618 TIP3     127      TIP3     H1       HT       0.417000       1.00800           0
     17619 TIP3     127      TIP3     H2       HT       0.417000       1.00800           0
     17620 TIP3     128      TIP3     OH2      OT      -0.834000       15.9994           0
     17621 TIP3     128      TIP3     H1       HT       0.417000       1.00800           0
     17622 TIP3     128      TIP3     H2       HT       0.417000       1.00800           0
     17623 TIP3     129      TIP3     OH2      OT      -0.834000       15.9994           0
     17624 TIP3     129      TIP3     H1       HT       0.417000       1.00800           0
     17625 TIP3     129      TIP3     H2       HT       0.417000       1.00800           0
     17626 TIP3     130      TIP3     OH2      OT      -0.834000       15.9994           0
     17627 TIP3     130      TIP3     H1       HT       0.417000       1.00800           0
     17628 TIP3     130      TIP3     H2       HT       0.417000       1.00800           0
     17629 TIP3     131      TIP3     OH2      OT      -0.834000       15.9994           0
     17630 TIP3     131      TIP3     H1       HT       0.417000       1.00800           0
     17631 TIP3     131      TIP3     H2       HT       0.417000       1.00800           0
     17632 TIP3     132      TIP3     OH2      OT      -0.834000       15.9994           0
     17633 TIP3     132      TIP3     H1       HT       0.417000       1.00800           0
     17634 TIP3     132      TIP3     H2       HT       0.417000       1.00800           0
     17635 TIP3     133      TIP3     OH2      OT      -0.834000       15.9994           0
     17636 TIP3     133      TIP3     H1       HT       0.417000       1.00800           0
     17637 TIP3     133      TIP3     H2       HT       0.417000       1.00800           0
     17638 TIP3     134      TIP3     OH2      OT      -0.834000       15.9994           0
     17639 TIP3     134      TIP3     H1       HT       0.417000       1.00800           0
     17640 TIP3     134      TIP3     H2       HT       0.417000       1.00800           0
     17641 TIP3     135      TIP3     OH2      OT      -0.834000       15.9994           0
     17642 TIP3     135      TIP3     H1       HT       0.417000       1.00800           0
     17643 TIP3     135      TIP3     H2       HT       0.417000       1.00800           0
     17644 TIP3     136      TIP3     OH2      OT      -0.834000       15.9994           0
     17645 TIP3     136      TIP3     H1       HT       0.417000       1.00800           0
     17646 TIP3     136      TIP3     H2       HT       0.417000       1.00800           0
     17647 TIP3     137      TIP3     OH2      OT      -0.834000       15.9994           0
     17648 TIP3     137      TIP3     H1       HT       0.417000       1.00800           0
     17649 TIP3     137      TIP3     H2       HT       0.417000       1.00800           0
     17650 TIP3     138      TIP3     OH2      OT      -0.834000       15.9994           0
     17651 TIP3     138      TIP3     H1       HT       0.417000       1.00800           0
     17652 TIP3     138      TIP3     H2       HT       0.417000       1.00800           0
     17653 TIP3     139      TIP3     OH2      OT      -0.834000       15.9994           0
     17654 TIP3     139      TIP3     H1       HT       0.417000       1.00800           0
     17655 TIP3     139      TIP3     H2       HT       0.417000       1.00800           0
     17656 TIP3     140      TIP3     OH2      OT      -0.834000       15.9994           0
     17657 TIP3     140      TIP3     H1       HT       0.417000       1.00800           0
     17658 TIP3     140      TIP3     H2       HT       0.417000       1.00800           0
     17659 TIP3     141      TIP3     OH2      OT      -0.834000       15.9994           0
     17660 TIP3     141      TIP3     H1       HT       0.417000       1.00800           0
     17661 TIP3     141      TIP3     H2       HT       0.417000       1.00800           0
     17662 TIP3     142      TIP3     OH2      OT      -0.834000       15.9994           0
     17663 TIP3     142      TIP3     H1       HT       0.417000       1.00800           0
     17664 TIP3     142      TIP3     H2       HT       0.417000       1.00800           0
     17665 TIP3     143      TIP3     OH2      OT      -0.834000       15.9994           0
     17666 TIP3     143      TIP3     H1       HT       0.417000       1.00800           0
     17667 TIP3     143      TIP3     H2       HT       0.417000       1.00800           0
     17668 TIP3     144      TIP3     OH2      OT      -0.834000       15.9994           0
     17669 TIP3     144      TIP3     H1       HT       0.417000       1.00800           0
     17670 TIP3     144      TIP3     H2       HT       0.417000       1.00800           0
     17671 TIP3     145      TIP3     OH2      OT      -0.834000       15.9994           0
     17672 TIP3     145      TIP3     H1       HT       0.417000       1.00800           0
     17673 TIP3     145      TIP3     H2       HT       0.417000       1.00800           0
     17674 TIP3     146      TIP3     OH2      OT      -0.834000       15.9994           0
     17675 TIP3     146      TIP3     H1       HT       0.417000       1.00800           0
     17676 TIP3     146      TIP3     H2       HT       0.417000       1.00800           0
     17677 TIP3     147      TIP3     OH2      OT      -0.834000       15.9994           0
     17678 TIP3     147      TIP3     H1       HT       0.417000       1.00800           0
     17679 TIP3     147      TIP3     H2       HT       0.417000       1.00800           0
     17680 TIP3     148      TIP3     OH2      OT      -0.834000       15.9994           0
     17681 TIP3     148      TIP3     H1       HT       0.417000       1.00800           0
     17682 TIP3     148      TIP3     H2       HT       0.417000       1.00800           0
     17683 TIP3     149      TIP3     OH2      OT      -0.834000       15.9994           0
     17684 TIP3     149      TIP3     H1       HT       0.417000       1.00800           0
     17685 TIP3     149      TIP3     H2       HT       0.417000       1.00800           0
     17686 TIP3     150      TIP3     OH2      OT      -0.834000       15.9994           0
     17687 TIP3     150      TIP3     H1       HT       0.417000       1.00800           0
     17688 TIP3     150      TIP3     H2       HT       0.417000       1.00800           0
     17689 TIP3     151      TIP3     OH2      OT      -0.834000       15.9994           0
     17690 TIP3     151      TIP3     H1       HT       0.417000       1.00800           0
     17691 TIP3     151      TIP3     H2       HT       0.417000       1.00800           0
     17692 TIP3     152      TIP3     OH2      OT      -0.834000       15.9994           0
     17693 TIP3     152      TIP3     H1       HT       0.417000       1.00800           0
     17694 TIP3     152      TIP3     H2       HT       0.417000       1.00800           0
     17695 TIP3     153      TIP3     OH2      OT      -0.834000       15.9994           0
     17696 TIP3     153      TIP3     H1       HT       0.417000       1.00800           0
     17697 TIP3     153      TIP3     H2       HT       0.417000       1.00800           0
     17698 TIP3     154      TIP3     OH2      OT      -0.834000       15.9994           0
     17699 TIP3     154      TIP3     H1       HT       0.417000       1.00800           0
     17700 TIP3     154      TIP3     H2       HT       0.417000       1.00800           0
     17701 TIP3     155      TIP3     OH2      OT      -0.834000       15.9994           0
     17702 TIP3     155      TIP3     H1       HT       0.417000       1.00800           0
     17703 TIP3     155      TIP3     H2       HT       0.417000       1.00800           0
     17704 TIP3     156      TIP3     OH2      OT      -0.834000       15.9994           0
     17705 TIP3     156      TIP3     H1       HT       0.417000       1.00800           0
     17706 TIP3     156      TIP3     H2       HT       0.417000       1.00800           0
     17707 TIP3     157      TIP3     OH2      OT      -0.834000       15.9994           0
     17708 TIP3     157      TIP3     H1       HT       0.417000       1.00800           0
     17709 TIP3     157      TIP3     H2       HT       0.417000       1.00800           0
     17710 TIP3     158      TIP3     OH2      OT      -0.834000       15.9994           0
     17711 TIP3     158      TIP3     H1       HT       0.417000       1.00800           0
     17712 TIP3     158      TIP3     H2       HT       0.417000       1.00800           0
     17713 TIP3     159      TIP3     OH2      OT      -0.834000       15.9994           0
     17714 TIP3     159      TIP3     H1       HT       0.417000       1.00800           0
     17715 TIP3     159      TIP3     H2       HT       0.417000       1.00800           0
     17716 TIP3     160      TIP3     OH2      OT      -0.834000       15.9994           0
     17717 TIP3     160      TIP3     H1       HT       0.417000       1.00800           0
     17718 TIP3     160      TIP3     H2       HT       0.417000       1.00800           0
     17719 TIP3     161      TIP3     OH2      OT      -0.834000       15.9994           0
     17720 TIP3     161      TIP3     H1       HT       0.417000       1.00800           0
     17721 TIP3     161      TIP3     H2       HT       0.417000       1.00800           0
     17722 TIP3     162      TIP3     OH2      OT      -0.834000       15.9994           0
     17723 TIP3     162      TIP3     H1       HT       0.417000       1.00800           0
     17724 TIP3     162      TIP3     H2       HT       0.417000       1.00800           0
     17725 TIP3     163      TIP3     OH2      OT      -0.834000       15.9994           0
     17726 TIP3     163      TIP3     H1       HT       0.417000       1.00800           0
     17727 TIP3     163      TIP3     H2       HT       0.417000       1.00800           0
     17728 TIP3     164      TIP3     OH2      OT      -0.834000       15.9994           0
     17729 TIP3     164      TIP3     H1       HT       0.417000       1.00800           0
     17730 TIP3     164      TIP3     H2       HT       0.417000       1.00800           0
     17731 TIP3     165      TIP3     OH2      OT      -0.834000       15.9994           0
     17732 TIP3     165      TIP3     H1       HT       0.417000       1.00800           0
     17733 TIP3     165      TIP3     H2       HT       0.417000       1.00800           0
     17734 TIP3     166      TIP3     OH2      OT      -0.834000       15.9994           0
     17735 TIP3     166      TIP3     H1       HT       0.417000       1.00800           0
     17736 TIP3     166      TIP3     H2       HT       0.417000       1.00800           0
     17737 TIP3     167      TIP3     OH2      OT      -0.834000       15.9994           0
     17738 TIP3     167      TIP3     H1       HT       0.417000       1.00800           0
     17739 TIP3     167      TIP3     H2       HT       0.417000       1.00800           0
     17740 TIP3     168      TIP3     OH2      OT      -0.834000       15.9994           0
     17741 TIP3     168      TIP3     H1       HT       0.417000       1.00800           0
     17742 TIP3     168      TIP3     H2       HT       0.417000       1.00800           0
     17743 TIP3     169      TIP3     OH2      OT      -0.834000       15.9994           0
     17744 TIP3     169      TIP3     H1       HT       0.417000       1.00800           0
     17745 TIP3     169      TIP3     H2       HT       0.417000       1.00800           0
     17746 TIP3     170      TIP3     OH2      OT      -0.834000       15.9994           0
     17747 TIP3     170      TIP3     H1       HT       0.417000       1.00800           0
     17748 TIP3     170      TIP3     H2       HT       0.417000       1.00800           0
     17749 TIP3     171      TIP3     OH2      OT      -0.834000       15.9994           0
     17750 TIP3     171      TIP3     H1       HT       0.417000       1.00800           0
     17751 TIP3     171      TIP3     H2       HT       0.417000       1.00800           0
     17752 TIP3     172      TIP3     OH2      OT      -0.834000       15.9994           0
     17753 TIP3     172      TIP3     H1       HT       0.417000       1.00800           0
     17754 TIP3     172      TIP3     H2       HT       0.417000       1.00800           0
     17755 TIP3     173      TIP3     OH2      OT      -0.834000       15.9994           0
     17756 TIP3     173      TIP3     H1       HT       0.417000       1.00800           0
     17757 TIP3     173      TIP3     H2       HT       0.417000       1.00800           0
     17758 TIP3     174      TIP3     OH2      OT      -0.834000       15.9994           0
     17759 TIP3     174      TIP3     H1       HT       0.417000       1.00800           0
     17760 TIP3     174      TIP3     H2       HT       0.417000       1.00800           0
     17761 TIP3     175      TIP3     OH2      OT      -0.834000       15.9994           0
     17762 TIP3     175      TIP3     H1       HT       0.417000       1.00800           0
     17763 TIP3     175      TIP3     H2       HT       0.417000       1.00800           0
     17764 TIP3     176      TIP3     OH2      OT      -0.834000       15.9994           0
     17765 TIP3     176      TIP3     H1       HT       0.417000       1.00800           0
     17766 TIP3     176      TIP3     H2       HT       0.417000       1.00800           0
     17767 TIP3     177      TIP3     OH2      OT      -0.834000       15.9994           0
     17768 TIP3     177      TIP3     H1       HT       0.417000       1.00800           0
     17769 TIP3     177      TIP3     H2       HT       0.417000       1.00800           0
     17770 TIP3     178      TIP3     OH2      OT      -0.834000       15.9994           0
     17771 TIP3     178      TIP3     H1       HT       0.417000       1.00800           0
     17772 TIP3     178      TIP3     H2       HT       0.417000       1.00800           0
     17773 TIP3     179      TIP3     OH2      OT      -0.834000       15.9994           0
     17774 TIP3     179      TIP3     H1       HT       0.417000       1.00800           0
     17775 TIP3     179      TIP3     H2       HT       0.417000       1.00800           0
     17776 TIP3     180      TIP3     OH2      OT      -0.834000       15.9994           0
     17777 TIP3     180      TIP3     H1       HT       0.417000       1.00800           0
     17778 TIP3     180      TIP3     H2       HT       0.417000       1.00800           0
     17779 TIP3     181      TIP3     OH2      OT      -0.834000       15.9994           0
     17780 TIP3     181      TIP3     H1       HT       0.417000       1.00800           0
     17781 TIP3     181      TIP3     H2       HT       0.417000       1.00800           0
     17782 TIP3     182      TIP3     OH2      OT      -0.834000       15.9994           0
     17783 TIP3     182      TIP3     H1       HT       0.417000       1.00800           0
     17784 TIP3     182      TIP3     H2       HT       0.417000       1.00800           0
     17785 TIP3     183      TIP3     OH2      OT      -0.834000       15.9994           0
     17786 TIP3     183      TIP3     H1       HT       0.417000       1.00800           0
     17787 TIP3     183      TIP3     H2       HT       0.417000       1.00800           0
     17788 TIP3     184      TIP3     OH2      OT      -0.834000       15.9994           0
     17789 TIP3     184      TIP3     H1       HT       0.417000       1.00800           0
     17790 TIP3     184      TIP3     H2       HT       0.417000       1.00800           0
     17791 TIP3     185      TIP3     OH2      OT      -0.834000       15.9994           0
     17792 TIP3     185      TIP3     H1       HT       0.417000       1.00800           0
     17793 TIP3     185      TIP3     H2       HT       0.417000       1.00800           0
     17794 TIP3     186      TIP3     OH2      OT      -0.834000       15.9994           0
     17795 TIP3     186      TIP3     H1       HT       0.417000       1.00800           0
     17796 TIP3     186      TIP3     H2       HT       0.417000       1.00800           0
     17797 TIP3     187      TIP3     OH2      OT      -0.834000       15.9994           0
     17798 TIP3     187      TIP3     H1       HT       0.417000       1.00800           0
     17799 TIP3     187      TIP3     H2       HT       0.417000       1.00800           0
     17800 TIP3     188      TIP3     OH2      OT      -0.834000       15.9994           0
     17801 TIP3     188      TIP3     H1       HT       0.417000       1.00800           0
     17802 TIP3     188      TIP3     H2       HT       0.417000       1.00800           0
     17803 TIP3     189      TIP3     OH2      OT      -0.834000       15.9994           0
     17804 TIP3     189      TIP3     H1       HT       0.417000       1.00800           0
     17805 TIP3     189      TIP3     H2       HT       0.417000       1.00800           0
     17806 TIP3     190      TIP3     OH2      OT      -0.834000       15.9994           0
     17807 TIP3     190      TIP3     H1       HT       0.417000       1.00800           0
     17808 TIP3     190      TIP3     H2       HT       0.417000       1.00800           0
     17809 TIP3     191      TIP3     OH2      OT      -0.834000       15.9994           0
     17810 TIP3     191      TIP3     H1       HT       0.417000       1.00800           0
     17811 TIP3     191      TIP3     H2       HT       0.417000       1.00800           0
     17812 TIP3     192      TIP3     OH2      OT      -0.834000       15.9994           0
     17813 TIP3     192      TIP3     H1       HT       0.417000       1.00800           0
     17814 TIP3     192      TIP3     H2       HT       0.417000       1.00800           0
     17815 TIP3     193      TIP3     OH2      OT      -0.834000       15.9994           0
     17816 TIP3     193      TIP3     H1       HT       0.417000       1.00800           0
     17817 TIP3     193      TIP3     H2       HT       0.417000       1.00800           0
     17818 TIP3     194      TIP3     OH2      OT      -0.834000       15.9994           0
     17819 TIP3     194      TIP3     H1       HT       0.417000       1.00800           0
     17820 TIP3     194      TIP3     H2       HT       0.417000       1.00800           0
     17821 TIP3     195      TIP3     OH2      OT      -0.834000       15.9994           0
     17822 TIP3     195      TIP3     H1       HT       0.417000       1.00800           0
     17823 TIP3     195      TIP3     H2       HT       0.417000       1.00800           0
     17824 TIP3     196      TIP3     OH2      OT      -0.834000       15.9994           0
     17825 TIP3     196      TIP3     H1       HT       0.417000       1.00800           0
     17826 TIP3     196      TIP3     H2       HT       0.417000       1.00800           0
     17827 TIP3     197      TIP3     OH2      OT      -0.834000       15.9994           0
     17828 TIP3     197      TIP3     H1       HT       0.417000       1.00800           0
     17829 TIP3     197      TIP3     H2       HT       0.417000       1.00800           0
     17830 TIP3     198      TIP3     OH2      OT      -0.834000       15.9994           0
     17831 TIP3     198      TIP3     H1       HT       0.417000       1.00800           0
     17832 TIP3     198      TIP3     H2       HT       0.417000       1.00800           0
     17833 TIP3     199      TIP3     OH2      OT      -0.834000       15.9994           0
     17834 TIP3     199      TIP3     H1       HT       0.417000       1.00800           0
     17835 TIP3     199      TIP3     H2       HT       0.417000       1.00800           0
     17836 TIP3     200      TIP3     OH2      OT      -0.834000       15.9994           0
     17837 TIP3     200      TIP3     H1       HT       0.417000       1.00800           0
     17838 TIP3     200      TIP3     H2       HT       0.417000       1.00800           0
     17839 TIP3     201      TIP3     OH2      OT      -0.834000       15.9994           0
     17840 TIP3     201      TIP3     H1       HT       0.417000       1.00800           0
     17841 TIP3     201      TIP3     H2       HT       0.417000       1.00800           0
     17842 TIP3     202      TIP3     OH2      OT      -0.834000       15.9994           0
     17843 TIP3     202      TIP3     H1       HT       0.417000       1.00800           0
     17844 TIP3     202      TIP3     H2       HT       0.417000       1.00800           0
     17845 TIP3     203      TIP3     OH2      OT      -0.834000       15.9994           0
     17846 TIP3     203      TIP3     H1       HT       0.417000       1.00800           0
     17847 TIP3     203      TIP3     H2       HT       0.417000       1.00800           0
     17848 TIP3     204      TIP3     OH2      OT      -0.834000       15.9994           0
     17849 TIP3     204      TIP3     H1       HT       0.417000       1.00800           0
     17850 TIP3     204      TIP3     H2       HT       0.417000       1.00800           0
     17851 TIP3     205      TIP3     OH2      OT      -0.834000       15.9994           0
     17852 TIP3     205      TIP3     H1       HT       0.417000       1.00800           0
     17853 TIP3     205      TIP3     H2       HT       0.417000       1.00800           0
     17854 TIP3     206      TIP3     OH2      OT      -0.834000       15.9994           0
     17855 TIP3     206      TIP3     H1       HT       0.417000       1.00800           0
     17856 TIP3     206      TIP3     H2       HT       0.417000       1.00800           0
     17857 TIP3     207      TIP3     OH2      OT      -0.834000       15.9994           0
     17858 TIP3     207      TIP3     H1       HT       0.417000       1.00800           0
     17859 TIP3     207      TIP3     H2       HT       0.417000       1.00800           0
     17860 TIP3     208      TIP3     OH2      OT      -0.834000       15.9994           0
     17861 TIP3     208      TIP3     H1       HT       0.417000       1.00800           0
     17862 TIP3     208      TIP3     H2       HT       0.417000       1.00800           0
     17863 TIP3     209      TIP3     OH2      OT      -0.834000       15.9994           0
     17864 TIP3     209      TIP3     H1       HT       0.417000       1.00800           0
     17865 TIP3     209      TIP3     H2       HT       0.417000       1.00800           0
     17866 TIP3     210      TIP3     OH2      OT      -0.834000       15.9994           0
     17867 TIP3     210      TIP3     H1       HT       0.417000       1.00800           0
     17868 TIP3     210      TIP3     H2       HT       0.417000       1.00800           0
     17869 TIP3     211      TIP3     OH2      OT      -0.834000       15.9994           0
     17870 TIP3     211      TIP3     H1       HT       0.417000       1.00800           0
     17871 TIP3     211      TIP3     H2       HT       0.417000       1.00800           0
     17872 TIP3     212      TIP3     OH2      OT      -0.834000       15.9994           0
     17873 TIP3     212      TIP3     H1       HT       0.417000       1.00800           0
     17874 TIP3     212      TIP3     H2       HT       0.417000       1.00800           0
     17875 TIP3     213      TIP3     OH2      OT      -0.834000       15.9994           0
     17876 TIP3     213      TIP3     H1       HT       0.417000       1.00800           0
     17877 TIP3     213      TIP3     H2       HT       0.417000       1.00800           0
     17878 TIP3     214      TIP3     OH2      OT      -0.834000       15.9994           0
     17879 TIP3     214      TIP3     H1       HT       0.417000       1.00800           0
     17880 TIP3     214      TIP3     H2       HT       0.417000       1.00800           0
     17881 TIP3     215      TIP3     OH2      OT      -0.834000       15.9994           0
     17882 TIP3     215      TIP3     H1       HT       0.417000       1.00800           0
     17883 TIP3     215      TIP3     H2       HT       0.417000       1.00800           0
     17884 TIP3     216      TIP3     OH2      OT      -0.834000       15.9994           0
     17885 TIP3     216      TIP3     H1       HT       0.417000       1.00800           0
     17886 TIP3     216      TIP3     H2       HT       0.417000       1.00800           0
     17887 TIP3     217      TIP3     OH2      OT      -0.834000       15.9994           0
     17888 TIP3     217      TIP3     H1       HT       0.417000       1.00800           0
     17889 TIP3     217      TIP3     H2       HT       0.417000       1.00800           0
     17890 TIP3     218      TIP3     OH2      OT      -0.834000       15.9994           0
     17891 TIP3     218      TIP3     H1       HT       0.417000       1.00800           0
     17892 TIP3     218      TIP3     H2       HT       0.417000       1.00800           0
     17893 TIP3     219      TIP3     OH2      OT      -0.834000       15.9994           0
     17894 TIP3     219      TIP3     H1       HT       0.417000       1.00800           0
     17895 TIP3     219      TIP3     H2       HT       0.417000       1.00800           0
     17896 TIP3     220      TIP3     OH2      OT      -0.834000       15.9994           0
     17897 TIP3     220      TIP3     H1       HT       0.417000       1.00800           0
     17898 TIP3     220      TIP3     H2       HT       0.417000       1.00800           0
     17899 TIP3     221      TIP3     OH2      OT      -0.834000       15.9994           0
     17900 TIP3     221      TIP3     H1       HT       0.417000       1.00800           0
     17901 TIP3     221      TIP3     H2       HT       0.417000       1.00800           0
     17902 TIP3     222      TIP3     OH2      OT      -0.834000       15.9994           0
     17903 TIP3     222      TIP3     H1       HT       0.417000       1.00800           0
     17904 TIP3     222      TIP3     H2       HT       0.417000       1.00800           0
     17905 TIP3     223      TIP3     OH2      OT      -0.834000       15.9994           0
     17906 TIP3     223      TIP3     H1       HT       0.417000       1.00800           0
     17907 TIP3     223      TIP3     H2       HT       0.417000       1.00800           0
     17908 TIP3     224      TIP3     OH2      OT      -0.834000       15.9994           0
     17909 TIP3     224      TIP3     H1       HT       0.417000       1.00800           0
     17910 TIP3     224      TIP3     H2       HT       0.417000       1.00800           0
     17911 TIP3     225      TIP3     OH2      OT      -0.834000       15.9994           0
     17912 TIP3     225      TIP3     H1       HT       0.417000       1.00800           0
     17913 TIP3     225      TIP3     H2       HT       0.417000       1.00800           0
     17914 TIP3     226      TIP3     OH2      OT      -0.834000       15.9994           0
     17915 TIP3     226      TIP3     H1       HT       0.417000       1.00800           0
     17916 TIP3     226      TIP3     H2       HT       0.417000       1.00800           0
     17917 TIP3     227      TIP3     OH2      OT      -0.834000       15.9994           0
     17918 TIP3     227      TIP3     H1       HT       0.417000       1.00800           0
     17919 TIP3     227      TIP3     H2       HT       0.417000       1.00800           0
     17920 TIP3     228      TIP3     OH2      OT      -0.834000       15.9994           0
     17921 TIP3     228      TIP3     H1       HT       0.417000       1.00800           0
     17922 TIP3     228      TIP3     H2       HT       0.417000       1.00800           0
     17923 TIP3     229      TIP3     OH2      OT      -0.834000       15.9994           0
     17924 TIP3     229      TIP3     H1       HT       0.417000       1.00800           0
     17925 TIP3     229      TIP3     H2       HT       0.417000       1.00800           0
     17926 TIP3     230      TIP3     OH2      OT      -0.834000       15.9994           0
     17927 TIP3     230      TIP3     H1       HT       0.417000       1.00800           0
     17928 TIP3     230      TIP3     H2       HT       0.417000       1.00800           0
     17929 TIP3     231      TIP3     OH2      OT      -0.834000       15.9994           0
     17930 TIP3     231      TIP3     H1       HT       0.417000       1.00800           0
     17931 TIP3     231      TIP3     H2       HT       0.417000       1.00800           0
     17932 TIP3     232      TIP3     OH2      OT      -0.834000       15.9994           0
     17933 TIP3     232      TIP3     H1       HT       0.417000       1.00800           0
     17934 TIP3     232      TIP3     H2       HT       0.417000       1.00800           0
     17935 TIP3     233      TIP3     OH2      OT      -0.834000       15.9994           0
     17936 TIP3     233      TIP3     H1       HT       0.417000       1.00800           0
     17937 TIP3     233      TIP3     H2       HT       0.417000       1.00800           0
     17938 TIP3     234      TIP3     OH2      OT      -0.834000       15.9994           0
     17939 TIP3     234      TIP3     H1       HT       0.417000       1.00800           0
     17940 TIP3     234      TIP3     H2       HT       0.417000       1.00800           0
     17941 TIP3     235      TIP3     OH2      OT      -0.834000       15.9994           0
     17942 TIP3     235      TIP3     H1       HT       0.417000       1.00800           0
     17943 TIP3     235      TIP3     H2       HT       0.417000       1.00800           0
     17944 TIP3     236      TIP3     OH2      OT      -0.834000       15.9994           0
     17945 TIP3     236      TIP3     H1       HT       0.417000       1.00800           0
     17946 TIP3     236      TIP3     H2       HT       0.417000       1.00800           0
     17947 TIP3     237      TIP3     OH2      OT      -0.834000       15.9994           0
     17948 TIP3     237      TIP3     H1       HT       0.417000       1.00800           0
     17949 TIP3     237      TIP3     H2       HT       0.417000       1.00800           0
     17950 TIP3     238      TIP3     OH2      OT      -0.834000       15.9994           0
     17951 TIP3     238      TIP3     H1       HT       0.417000       1.00800           0
     17952 TIP3     238      TIP3     H2       HT       0.417000       1.00800           0
     17953 TIP3     239      TIP3     OH2      OT      -0.834000       15.9994           0
     17954 TIP3     239      TIP3     H1       HT       0.417000       1.00800           0
     17955 TIP3     239      TIP3     H2       HT       0.417000       1.00800           0
     17956 TIP3     240      TIP3     OH2      OT      -0.834000       15.9994           0
     17957 TIP3     240      TIP3     H1       HT       0.417000       1.00800           0
     17958 TIP3     240      TIP3     H2       HT       0.417000       1.00800           0
     17959 TIP3     241      TIP3     OH2      OT      -0.834000       15.9994           0
     17960 TIP3     241      TIP3     H1       HT       0.417000       1.00800           0
     17961 TIP3     241      TIP3     H2       HT       0.417000       1.00800           0
     17962 TIP3     242      TIP3     OH2      OT      -0.834000       15.9994           0
     17963 TIP3     242      TIP3     H1       HT       0.417000       1.00800           0
     17964 TIP3     242      TIP3     H2       HT       0.417000       1.00800           0
     17965 TIP3     243      TIP3     OH2      OT      -0.834000       15.9994           0
     17966 TIP3     243      TIP3     H1       HT       0.417000       1.00800           0
     17967 TIP3     243      TIP3     H2       HT       0.417000       1.00800           0
     17968 TIP3     244      TIP3     OH2      OT      -0.834000       15.9994           0
     17969 TIP3     244      TIP3     H1       HT       0.417000       1.00800           0
     17970 TIP3     244      TIP3     H2       HT       0.417000       1.00800           0
     17971 TIP3     245      TIP3     OH2      OT      -0.834000       15.9994           0
     17972 TIP3     245      TIP3     H1       HT       0.417000       1.00800           0
     17973 TIP3     245      TIP3     H2       HT       0.417000       1.00800           0
     17974 TIP3     246      TIP3     OH2      OT      -0.834000       15.9994           0
     17975 TIP3     246      TIP3     H1       HT       0.417000       1.00800           0
     17976 TIP3     246      TIP3     H2       HT       0.417000       1.00800           0
     17977 TIP3     247      TIP3     OH2      OT      -0.834000       15.9994           0
     17978 TIP3     247      TIP3     H1       HT       0.417000       1.00800           0
     17979 TIP3     247      TIP3     H2       HT       0.417000       1.00800           0
     17980 TIP3     248      TIP3     OH2      OT      -0.834000       15.9994           0
     17981 TIP3     248      TIP3     H1       HT       0.417000       1.00800           0
     17982 TIP3     248      TIP3     H2       HT       0.417000       1.00800           0
     17983 TIP3     249      TIP3     OH2      OT      -0.834000       15.9994           0
     17984 TIP3     249      TIP3     H1       HT       0.417000       1.00800           0
     17985 TIP3     249      TIP3     H2       HT       0.417000       1.00800           0
     17986 TIP3     250      TIP3     OH2      OT      -0.834000       15.9994           0
     17987 TIP3     250      TIP3     H1       HT       0.417000       1.00800           0
     17988 TIP3     250      TIP3     H2       HT       0.417000       1.00800           0
     17989 TIP3     251      TIP3     OH2      OT      -0.834000       15.9994           0
     17990 TIP3     251      TIP3     H1       HT       0.417000       1.00800           0
     17991 TIP3     251      TIP3     H2       HT       0.417000       1.00800           0
     17992 TIP3     252      TIP3     OH2      OT      -0.834000       15.9994           0
     17993 TIP3     252      TIP3     H1       HT       0.417000       1.00800           0
     17994 TIP3     252      TIP3     H2       HT       0.417000       1.00800           0
     17995 TIP3     253      TIP3     OH2      OT      -0.834000       15.9994           0
     17996 TIP3     253      TIP3     H1       HT       0.417000       1.00800           0
     17997 TIP3     253      TIP3     H2       HT       0.417000       1.00800           0
     17998 TIP3     254      TIP3     OH2      OT      -0.834000       15.9994           0
     17999 TIP3     254      TIP3     H1       HT       0.417000       1.00800           0
     18000 TIP3     254      TIP3     H2       HT       0.417000       1.00800           0
     18001 TIP3     255      TIP3     OH2      OT      -0.834000       15.9994           0
     18002 TIP3     255      TIP3     H1       HT       0.417000       1.00800           0
     18003 TIP3     255      TIP3     H2       HT       0.417000       1.00800           0
     18004 TIP3     256      TIP3     OH2      OT      -0.834000       15.9994           0
     18005 TIP3     256      TIP3     H1       HT       0.417000       1.00800           0
     18006 TIP3     256      TIP3     H2       HT       0.417000       1.00800           0
     18007 TIP3     257      TIP3     OH2      OT      -0.834000       15.9994           0
     18008 TIP3     257      TIP3     H1       HT       0.417000       1.00800           0
     18009 TIP3     257      TIP3     H2       HT       0.417000       1.00800           0
     18010 TIP3     258      TIP3     OH2      OT      -0.834000       15.9994           0
     18011 TIP3     258      TIP3     H1       HT       0.417000       1.00800           0
     18012 TIP3     258      TIP3     H2       HT       0.417000       1.00800           0
     18013 TIP3     259      TIP3     OH2      OT      -0.834000       15.9994           0
     18014 TIP3     259      TIP3     H1       HT       0.417000       1.00800           0
     18015 TIP3     259      TIP3     H2       HT       0.417000       1.00800           0
     18016 TIP3     260      TIP3     OH2      OT      -0.834000       15.9994           0
     18017 TIP3     260      TIP3     H1       HT       0.417000       1.00800           0
     18018 TIP3     260      TIP3     H2       HT       0.417000       1.00800           0
     18019 TIP3     261      TIP3     OH2      OT      -0.834000       15.9994           0
     18020 TIP3     261      TIP3     H1       HT       0.417000       1.00800           0
     18021 TIP3     261      TIP3     H2       HT       0.417000       1.00800           0
     18022 TIP3     262      TIP3     OH2      OT      -0.834000       15.9994           0
     18023 TIP3     262      TIP3     H1       HT       0.417000       1.00800           0
     18024 TIP3     262      TIP3     H2       HT       0.417000       1.00800           0
     18025 TIP3     263      TIP3     OH2      OT      -0.834000       15.9994           0
     18026 TIP3     263      TIP3     H1       HT       0.417000       1.00800           0
     18027 TIP3     263      TIP3     H2       HT       0.417000       1.00800           0
     18028 TIP3     264      TIP3     OH2      OT      -0.834000       15.9994           0
     18029 TIP3     264      TIP3     H1       HT       0.417000       1.00800           0
     18030 TIP3     264      TIP3     H2       HT       0.417000       1.00800           0
     18031 TIP3     265      TIP3     OH2      OT      -0.834000       15.9994           0
     18032 TIP3     265      TIP3     H1       HT       0.417000       1.00800           0
     18033 TIP3     265      TIP3     H2       HT       0.417000       1.00800           0
     18034 TIP3     266      TIP3     OH2      OT      -0.834000       15.9994           0
     18035 TIP3     266      TIP3     H1       HT       0.417000       1.00800           0
     18036 TIP3     266      TIP3     H2       HT       0.417000       1.00800           0
     18037 TIP3     267      TIP3     OH2      OT      -0.834000       15.9994           0
     18038 TIP3     267      TIP3     H1       HT       0.417000       1.00800           0
     18039 TIP3     267      TIP3     H2       HT       0.417000       1.00800           0
     18040 TIP3     268      TIP3     OH2      OT      -0.834000       15.9994           0
     18041 TIP3     268      TIP3     H1       HT       0.417000       1.00800           0
     18042 TIP3     268      TIP3     H2       HT       0.417000       1.00800           0
     18043 TIP3     269      TIP3     OH2      OT      -0.834000       15.9994           0
     18044 TIP3     269      TIP3     H1       HT       0.417000       1.00800           0
     18045 TIP3     269      TIP3     H2       HT       0.417000       1.00800           0
     18046 TIP3     270      TIP3     OH2      OT      -0.834000       15.9994           0
     18047 TIP3     270      TIP3     H1       HT       0.417000       1.00800           0
     18048 TIP3     270      TIP3     H2       HT       0.417000       1.00800           0
     18049 TIP3     271      TIP3     OH2      OT      -0.834000       15.9994           0
     18050 TIP3     271      TIP3     H1       HT       0.417000       1.00800           0
     18051 TIP3     271      TIP3     H2       HT       0.417000       1.00800           0
     18052 TIP3     272      TIP3     OH2      OT      -0.834000       15.9994           0
     18053 TIP3     272      TIP3     H1       HT       0.417000       1.00800           0
     18054 TIP3     272      TIP3     H2       HT       0.417000       1.00800           0
     18055 TIP3     273      TIP3     OH2      OT      -0.834000       15.9994           0
     18056 TIP3     273      TIP3     H1       HT       0.417000       1.00800           0
     18057 TIP3     273      TIP3     H2       HT       0.417000       1.00800           0
     18058 TIP3     274      TIP3     OH2      OT      -0.834000       15.9994           0
     18059 TIP3     274      TIP3     H1       HT       0.417000       1.00800           0
     18060 TIP3     274      TIP3     H2       HT       0.417000       1.00800           0
     18061 TIP3     275      TIP3     OH2      OT      -0.834000       15.9994           0
     18062 TIP3     275      TIP3     H1       HT       0.417000       1.00800           0
     18063 TIP3     275      TIP3     H2       HT       0.417000       1.00800           0
     18064 TIP3     276      TIP3     OH2      OT      -0.834000       15.9994           0
     18065 TIP3     276      TIP3     H1       HT       0.417000       1.00800           0
     18066 TIP3     276      TIP3     H2       HT       0.417000       1.00800           0
     18067 TIP3     277      TIP3     OH2      OT      -0.834000       15.9994           0
     18068 TIP3     277      TIP3     H1       HT       0.417000       1.00800           0
     18069 TIP3     277      TIP3     H2       HT       0.417000       1.00800           0
     18070 TIP3     278      TIP3     OH2      OT      -0.834000       15.9994           0
     18071 TIP3     278      TIP3     H1       HT       0.417000       1.00800           0
     18072 TIP3     278      TIP3     H2       HT       0.417000       1.00800           0
     18073 TIP3     279      TIP3     OH2      OT      -0.834000       15.9994           0
     18074 TIP3     279      TIP3     H1       HT       0.417000       1.00800           0
     18075 TIP3     279      TIP3     H2       HT       0.417000       1.00800           0
     18076 TIP3     280      TIP3     OH2      OT      -0.834000       15.9994           0
     18077 TIP3     280      TIP3     H1       HT       0.417000       1.00800           0
     18078 TIP3     280      TIP3     H2       HT       0.417000       1.00800           0
     18079 TIP3     281      TIP3     OH2      OT      -0.834000       15.9994           0
     18080 TIP3     281      TIP3     H1       HT       0.417000       1.00800           0
     18081 TIP3     281      TIP3     H2       HT       0.417000       1.00800           0
     18082 TIP3     282      TIP3     OH2      OT      -0.834000       15.9994           0
     18083 TIP3     282      TIP3     H1       HT       0.417000       1.00800           0
     18084 TIP3     282      TIP3     H2       HT       0.417000       1.00800           0
     18085 TIP3     283      TIP3     OH2      OT      -0.834000       15.9994           0
     18086 TIP3     283      TIP3     H1       HT       0.417000       1.00800           0
     18087 TIP3     283      TIP3     H2       HT       0.417000       1.00800           0
     18088 TIP3     284      TIP3     OH2      OT      -0.834000       15.9994           0
     18089 TIP3     284      TIP3     H1       HT       0.417000       1.00800           0
     18090 TIP3     284      TIP3     H2       HT       0.417000       1.00800           0
     18091 TIP3     285      TIP3     OH2      OT      -0.834000       15.9994           0
     18092 TIP3     285      TIP3     H1       HT       0.417000       1.00800           0
     18093 TIP3     285      TIP3     H2       HT       0.417000       1.00800           0
     18094 TIP3     286      TIP3     OH2      OT      -0.834000       15.9994           0
     18095 TIP3     286      TIP3     H1       HT       0.417000       1.00800           0
     18096 TIP3     286      TIP3     H2       HT       0.417000       1.00800           0
     18097 TIP3     287      TIP3     OH2      OT      -0.834000       15.9994           0
     18098 TIP3     287      TIP3     H1       HT       0.417000       1.00800           0
     18099 TIP3     287      TIP3     H2       HT       0.417000       1.00800           0
     18100 TIP3     288      TIP3     OH2      OT      -0.834000       15.9994           0
     18101 TIP3     288      TIP3     H1       HT       0.417000       1.00800           0
     18102 TIP3     288      TIP3     H2       HT       0.417000       1.00800           0
     18103 TIP3     289      TIP3     OH2      OT      -0.834000       15.9994           0
     18104 TIP3     289      TIP3     H1       HT       0.417000       1.00800           0
     18105 TIP3     289      TIP3     H2       HT       0.417000       1.00800           0
     18106 TIP3     290      TIP3     OH2      OT      -0.834000       15.9994           0
     18107 TIP3     290      TIP3     H1       HT       0.417000       1.00800           0
     18108 TIP3     290      TIP3     H2       HT       0.417000       1.00800           0
     18109 TIP3     291      TIP3     OH2      OT      -0.834000       15.9994           0
     18110 TIP3     291      TIP3     H1       HT       0.417000       1.00800           0
     18111 TIP3     291      TIP3     H2       HT       0.417000       1.00800           0
     18112 TIP3     292      TIP3     OH2      OT      -0.834000       15.9994           0
     18113 TIP3     292      TIP3     H1       HT       0.417000       1.00800           0
     18114 TIP3     292      TIP3     H2       HT       0.417000       1.00800           0
     18115 TIP3     293      TIP3     OH2      OT      -0.834000       15.9994           0
     18116 TIP3     293      TIP3     H1       HT       0.417000       1.00800           0
     18117 TIP3     293      TIP3     H2       HT       0.417000       1.00800           0
     18118 TIP3     294      TIP3     OH2      OT      -0.834000       15.9994           0
     18119 TIP3     294      TIP3     H1       HT       0.417000       1.00800           0
     18120 TIP3     294      TIP3     H2       HT       0.417000       1.00800           0
     18121 TIP3     295      TIP3     OH2      OT      -0.834000       15.9994           0
     18122 TIP3     295      TIP3     H1       HT       0.417000       1.00800           0
     18123 TIP3     295      TIP3     H2       HT       0.417000       1.00800           0
     18124 TIP3     296      TIP3     OH2      OT      -0.834000       15.9994           0
     18125 TIP3     296      TIP3     H1       HT       0.417000       1.00800           0
     18126 TIP3     296      TIP3     H2       HT       0.417000       1.00800           0
     18127 TIP3     297      TIP3     OH2      OT      -0.834000       15.9994           0
     18128 TIP3     297      TIP3     H1       HT       0.417000       1.00800           0
     18129 TIP3     297      TIP3     H2       HT       0.417000       1.00800           0
     18130 TIP3     298      TIP3     OH2      OT      -0.834000       15.9994           0
     18131 TIP3     298      TIP3     H1       HT       0.417000       1.00800           0
     18132 TIP3     298      TIP3     H2       HT       0.417000       1.00800           0
     18133 TIP3     299      TIP3     OH2      OT      -0.834000       15.9994           0
     18134 TIP3     299      TIP3     H1       HT       0.417000       1.00800           0
     18135 TIP3     299      TIP3     H2       HT       0.417000       1.00800           0
     18136 TIP3     300      TIP3     OH2      OT      -0.834000       15.9994           0
     18137 TIP3     300      TIP3     H1       HT       0.417000       1.00800           0
     18138 TIP3     300      TIP3     H2       HT       0.417000       1.00800           0
     18139 TIP3     301      TIP3     OH2      OT      -0.834000       15.9994           0
     18140 TIP3     301      TIP3     H1       HT       0.417000       1.00800           0
     18141 TIP3     301      TIP3     H2       HT       0.417000       1.00800           0
     18142 TIP3     302      TIP3     OH2      OT      -0.834000       15.9994           0
     18143 TIP3     302      TIP3     H1       HT       0.417000       1.00800           0
     18144 TIP3     302      TIP3     H2       HT       0.417000       1.00800           0
     18145 TIP3     303      TIP3     OH2      OT      -0.834000       15.9994           0
     18146 TIP3     303      TIP3     H1       HT       0.417000       1.00800           0
     18147 TIP3     303      TIP3     H2       HT       0.417000       1.00800           0
     18148 TIP3     304      TIP3     OH2      OT      -0.834000       15.9994           0
     18149 TIP3     304      TIP3     H1       HT       0.417000       1.00800           0
     18150 TIP3     304      TIP3     H2       HT       0.417000       1.00800           0
     18151 TIP3     305      TIP3     OH2      OT      -0.834000       15.9994           0
     18152 TIP3     305      TIP3     H1       HT       0.417000       1.00800           0
     18153 TIP3     305      TIP3     H2       HT       0.417000       1.00800           0
     18154 TIP3     306      TIP3     OH2      OT      -0.834000       15.9994           0
     18155 TIP3     306      TIP3     H1       HT       0.417000       1.00800           0
     18156 TIP3     306      TIP3     H2       HT       0.417000       1.00800           0
     18157 TIP3     307      TIP3     OH2      OT      -0.834000       15.9994           0
     18158 TIP3     307      TIP3     H1       HT       0.417000       1.00800           0
     18159 TIP3     307      TIP3     H2       HT       0.417000       1.00800           0
     18160 TIP3     308      TIP3     OH2      OT      -0.834000       15.9994           0
     18161 TIP3     308      TIP3     H1       HT       0.417000       1.00800           0
     18162 TIP3     308      TIP3     H2       HT       0.417000       1.00800           0
     18163 TIP3     309      TIP3     OH2      OT      -0.834000       15.9994           0
     18164 TIP3     309      TIP3     H1       HT       0.417000       1.00800           0
     18165 TIP3     309      TIP3     H2       HT       0.417000       1.00800           0
     18166 TIP3     310      TIP3     OH2      OT      -0.834000       15.9994           0
     18167 TIP3     310      TIP3     H1       HT       0.417000       1.00800           0
     18168 TIP3     310      TIP3     H2       HT       0.417000       1.00800           0
     18169 TIP3     311      TIP3     OH2      OT      -0.834000       15.9994           0
     18170 TIP3     311      TIP3     H1       HT       0.417000       1.00800           0
     18171 TIP3     311      TIP3     H2       HT       0.417000       1.00800           0
     18172 TIP3     312      TIP3     OH2      OT      -0.834000       15.9994           0
     18173 TIP3     312      TIP3     H1       HT       0.417000       1.00800           0
     18174 TIP3     312      TIP3     H2       HT       0.417000       1.00800           0
     18175 TIP3     313      TIP3     OH2      OT      -0.834000       15.9994           0
     18176 TIP3     313      TIP3     H1       HT       0.417000       1.00800           0
     18177 TIP3     313      TIP3     H2       HT       0.417000       1.00800           0
     18178 TIP3     314      TIP3     OH2      OT      -0.834000       15.9994           0
     18179 TIP3     314      TIP3     H1       HT       0.417000       1.00800           0
     18180 TIP3     314      TIP3     H2       HT       0.417000       1.00800           0
     18181 TIP3     315      TIP3     OH2      OT      -0.834000       15.9994           0
     18182 TIP3     315      TIP3     H1       HT       0.417000       1.00800           0
     18183 TIP3     315      TIP3     H2       HT       0.417000       1.00800           0
     18184 TIP3     316      TIP3     OH2      OT      -0.834000       15.9994           0
     18185 TIP3     316      TIP3     H1       HT       0.417000       1.00800           0
     18186 TIP3     316      TIP3     H2       HT       0.417000       1.00800           0
     18187 TIP3     317      TIP3     OH2      OT      -0.834000       15.9994           0
     18188 TIP3     317      TIP3     H1       HT       0.417000       1.00800           0
     18189 TIP3     317      TIP3     H2       HT       0.417000       1.00800           0
     18190 TIP3     318      TIP3     OH2      OT      -0.834000       15.9994           0
     18191 TIP3     318      TIP3     H1       HT       0.417000       1.00800           0
     18192 TIP3     318      TIP3     H2       HT       0.417000       1.00800           0
     18193 TIP3     319      TIP3     OH2      OT      -0.834000       15.9994           0
     18194 TIP3     319      TIP3     H1       HT       0.417000       1.00800           0
     18195 TIP3     319      TIP3     H2       HT       0.417000       1.00800           0
     18196 TIP3     320      TIP3     OH2      OT      -0.834000       15.9994           0
     18197 TIP3     320      TIP3     H1       HT       0.417000       1.00800           0
     18198 TIP3     320      TIP3     H2       HT       0.417000       1.00800           0
     18199 TIP3     321      TIP3     OH2      OT      -0.834000       15.9994           0
     18200 TIP3     321      TIP3     H1       HT       0.417000       1.00800           0
     18201 TIP3     321      TIP3     H2       HT       0.417000       1.00800           0
     18202 TIP3     322      TIP3     OH2      OT      -0.834000       15.9994           0
     18203 TIP3     322      TIP3     H1       HT       0.417000       1.00800           0
     18204 TIP3     322      TIP3     H2       HT       0.417000       1.00800           0
     18205 TIP3     323      TIP3     OH2      OT      -0.834000       15.9994           0
     18206 TIP3     323      TIP3     H1       HT       0.417000       1.00800           0
     18207 TIP3     323      TIP3     H2       HT       0.417000       1.00800           0
     18208 TIP3     324      TIP3     OH2      OT      -0.834000       15.9994           0
     18209 TIP3     324      TIP3     H1       HT       0.417000       1.00800           0
     18210 TIP3     324      TIP3     H2       HT       0.417000       1.00800           0
     18211 TIP3     325      TIP3     OH2      OT      -0.834000       15.9994           0
     18212 TIP3     325      TIP3     H1       HT       0.417000       1.00800           0
     18213 TIP3     325      TIP3     H2       HT       0.417000       1.00800           0
     18214 TIP3     326      TIP3     OH2      OT      -0.834000       15.9994           0
     18215 TIP3     326      TIP3     H1       HT       0.417000       1.00800           0
     18216 TIP3     326      TIP3     H2       HT       0.417000       1.00800           0
     18217 TIP3     327      TIP3     OH2      OT      -0.834000       15.9994           0
     18218 TIP3     327      TIP3     H1       HT       0.417000       1.00800           0
     18219 TIP3     327      TIP3     H2       HT       0.417000       1.00800           0
     18220 TIP3     328      TIP3     OH2      OT      -0.834000       15.9994           0
     18221 TIP3     328      TIP3     H1       HT       0.417000       1.00800           0
     18222 TIP3     328      TIP3     H2       HT       0.417000       1.00800           0
     18223 TIP3     329      TIP3     OH2      OT      -0.834000       15.9994           0
     18224 TIP3     329      TIP3     H1       HT       0.417000       1.00800           0
     18225 TIP3     329      TIP3     H2       HT       0.417000       1.00800           0
     18226 TIP3     330      TIP3     OH2      OT      -0.834000       15.9994           0
     18227 TIP3     330      TIP3     H1       HT       0.417000       1.00800           0
     18228 TIP3     330      TIP3     H2       HT       0.417000       1.00800           0
     18229 TIP3     331      TIP3     OH2      OT      -0.834000       15.9994           0
     18230 TIP3     331      TIP3     H1       HT       0.417000       1.00800           0
     18231 TIP3     331      TIP3     H2       HT       0.417000       1.00800           0
     18232 TIP3     332      TIP3     OH2      OT      -0.834000       15.9994           0
     18233 TIP3     332      TIP3     H1       HT       0.417000       1.00800           0
     18234 TIP3     332      TIP3     H2       HT       0.417000       1.00800           0
     18235 TIP3     333      TIP3     OH2      OT      -0.834000       15.9994           0
     18236 TIP3     333      TIP3     H1       HT       0.417000       1.00800           0
     18237 TIP3     333      TIP3     H2       HT       0.417000       1.00800           0
     18238 TIP3     334      TIP3     OH2      OT      -0.834000       15.9994           0
     18239 TIP3     334      TIP3     H1       HT       0.417000       1.00800           0
     18240 TIP3     334      TIP3     H2       HT       0.417000       1.00800           0
     18241 TIP3     335      TIP3     OH2      OT      -0.834000       15.9994           0
     18242 TIP3     335      TIP3     H1       HT       0.417000       1.00800           0
     18243 TIP3     335      TIP3     H2       HT       0.417000       1.00800           0
     18244 TIP3     336      TIP3     OH2      OT      -0.834000       15.9994           0
     18245 TIP3     336      TIP3     H1       HT       0.417000       1.00800           0
     18246 TIP3     336      TIP3     H2       HT       0.417000       1.00800           0
     18247 TIP3     337      TIP3     OH2      OT      -0.834000       15.9994           0
     18248 TIP3     337      TIP3     H1       HT       0.417000       1.00800           0
     18249 TIP3     337      TIP3     H2       HT       0.417000       1.00800           0
     18250 TIP3     338      TIP3     OH2      OT      -0.834000       15.9994           0
     18251 TIP3     338      TIP3     H1       HT       0.417000       1.00800           0
     18252 TIP3     338      TIP3     H2       HT       0.417000       1.00800           0
     18253 TIP3     339      TIP3     OH2      OT      -0.834000       15.9994           0
     18254 TIP3     339      TIP3     H1       HT       0.417000       1.00800           0
     18255 TIP3     339      TIP3     H2       HT       0.417000       1.00800           0
     18256 TIP3     340      TIP3     OH2      OT      -0.834000       15.9994           0
     18257 TIP3     340      TIP3     H1       HT       0.417000       1.00800           0
     18258 TIP3     340      TIP3     H2       HT       0.417000       1.00800           0
     18259 TIP3     341      TIP3     OH2      OT      -0.834000       15.9994           0
     18260 TIP3     341      TIP3     H1       HT       0.417000       1.00800           0
     18261 TIP3     341      TIP3     H2       HT       0.417000       1.00800           0
     18262 TIP3     342      TIP3     OH2      OT      -0.834000       15.9994           0
     18263 TIP3     342      TIP3     H1       HT       0.417000       1.00800           0
     18264 TIP3     342      TIP3     H2       HT       0.417000       1.00800           0
     18265 TIP3     343      TIP3     OH2      OT      -0.834000       15.9994           0
     18266 TIP3     343      TIP3     H1       HT       0.417000       1.00800           0
     18267 TIP3     343      TIP3     H2       HT       0.417000       1.00800           0
     18268 TIP3     344      TIP3     OH2      OT      -0.834000       15.9994           0
     18269 TIP3     344      TIP3     H1       HT       0.417000       1.00800           0
     18270 TIP3     344      TIP3     H2       HT       0.417000       1.00800           0
     18271 TIP3     345      TIP3     OH2      OT      -0.834000       15.9994           0
     18272 TIP3     345      TIP3     H1       HT       0.417000       1.00800           0
     18273 TIP3     345      TIP3     H2       HT       0.417000       1.00800           0
     18274 TIP3     346      TIP3     OH2      OT      -0.834000       15.9994           0
     18275 TIP3     346      TIP3     H1       HT       0.417000       1.00800           0
     18276 TIP3     346      TIP3     H2       HT       0.417000       1.00800           0
     18277 TIP3     347      TIP3     OH2      OT      -0.834000       15.9994           0
     18278 TIP3     347      TIP3     H1       HT       0.417000       1.00800           0
     18279 TIP3     347      TIP3     H2       HT       0.417000       1.00800           0
     18280 TIP3     348      TIP3     OH2      OT      -0.834000       15.9994           0
     18281 TIP3     348      TIP3     H1       HT       0.417000       1.00800           0
     18282 TIP3     348      TIP3     H2       HT       0.417000       1.00800           0
     18283 TIP3     349      TIP3     OH2      OT      -0.834000       15.9994           0
     18284 TIP3     349      TIP3     H1       HT       0.417000       1.00800           0
     18285 TIP3     349      TIP3     H2       HT       0.417000       1.00800           0
     18286 TIP3     350      TIP3     OH2      OT      -0.834000       15.9994           0
     18287 TIP3     350      TIP3     H1       HT       0.417000       1.00800           0
     18288 TIP3     350      TIP3     H2       HT       0.417000       1.00800           0
     18289 TIP3     351      TIP3     OH2      OT      -0.834000       15.9994           0
     18290 TIP3     351      TIP3     H1       HT       0.417000       1.00800           0
     18291 TIP3     351      TIP3     H2       HT       0.417000       1.00800           0
     18292 TIP3     352      TIP3     OH2      OT      -0.834000       15.9994           0
     18293 TIP3     352      TIP3     H1       HT       0.417000       1.00800           0
     18294 TIP3     352      TIP3     H2       HT       0.417000       1.00800           0
     18295 TIP3     353      TIP3     OH2      OT      -0.834000       15.9994           0
     18296 TIP3     353      TIP3     H1       HT       0.417000       1.00800           0
     18297 TIP3     353      TIP3     H2       HT       0.417000       1.00800           0
     18298 TIP3     354      TIP3     OH2      OT      -0.834000       15.9994           0
     18299 TIP3     354      TIP3     H1       HT       0.417000       1.00800           0
     18300 TIP3     354      TIP3     H2       HT       0.417000       1.00800           0
     18301 TIP3     355      TIP3     OH2      OT      -0.834000       15.9994           0
     18302 TIP3     355      TIP3     H1       HT       0.417000       1.00800           0
     18303 TIP3     355      TIP3     H2       HT       0.417000       1.00800           0
     18304 TIP3     356      TIP3     OH2      OT      -0.834000       15.9994           0
     18305 TIP3     356      TIP3     H1       HT       0.417000       1.00800           0
     18306 TIP3     356      TIP3     H2       HT       0.417000       1.00800           0
     18307 TIP3     357      TIP3     OH2      OT      -0.834000       15.9994           0
     18308 TIP3     357      TIP3     H1       HT       0.417000       1.00800           0
     18309 TIP3     357      TIP3     H2       HT       0.417000       1.00800           0
     18310 TIP3     358      TIP3     OH2      OT      -0.834000       15.9994           0
     18311 TIP3     358      TIP3     H1       HT       0.417000       1.00800           0
     18312 TIP3     358      TIP3     H2       HT       0.417000       1.00800           0
     18313 TIP3     359      TIP3     OH2      OT      -0.834000       15.9994           0
     18314 TIP3     359      TIP3     H1       HT       0.417000       1.00800           0
     18315 TIP3     359      TIP3     H2       HT       0.417000       1.00800           0
     18316 TIP3     360      TIP3     OH2      OT      -0.834000       15.9994           0
     18317 TIP3     360      TIP3     H1       HT       0.417000       1.00800           0
     18318 TIP3     360      TIP3     H2       HT       0.417000       1.00800           0
     18319 TIP3     361      TIP3     OH2      OT      -0.834000       15.9994           0
     18320 TIP3     361      TIP3     H1       HT       0.417000       1.00800           0
     18321 TIP3     361      TIP3     H2       HT       0.417000       1.00800           0
     18322 TIP3     362      TIP3     OH2      OT      -0.834000       15.9994           0
     18323 TIP3     362      TIP3     H1       HT       0.417000       1.00800           0
     18324 TIP3     362      TIP3     H2       HT       0.417000       1.00800           0
     18325 TIP3     363      TIP3     OH2      OT      -0.834000       15.9994           0
     18326 TIP3     363      TIP3     H1       HT       0.417000       1.00800           0
     18327 TIP3     363      TIP3     H2       HT       0.417000       1.00800           0
     18328 TIP3     364      TIP3     OH2      OT      -0.834000       15.9994           0
     18329 TIP3     364      TIP3     H1       HT       0.417000       1.00800           0
     18330 TIP3     364      TIP3     H2       HT       0.417000       1.00800           0
     18331 TIP3     365      TIP3     OH2      OT      -0.834000       15.9994           0
     18332 TIP3     365      TIP3     H1       HT       0.417000       1.00800           0
     18333 TIP3     365      TIP3     H2       HT       0.417000       1.00800           0
     18334 TIP3     366      TIP3     OH2      OT      -0.834000       15.9994           0
     18335 TIP3     366      TIP3     H1       HT       0.417000       1.00800           0
     18336 TIP3     366      TIP3     H2       HT       0.417000       1.00800           0
     18337 TIP3     367      TIP3     OH2      OT      -0.834000       15.9994           0
     18338 TIP3     367      TIP3     H1       HT       0.417000       1.00800           0
     18339 TIP3     367      TIP3     H2       HT       0.417000       1.00800           0
     18340 TIP3     368      TIP3     OH2      OT      -0.834000       15.9994           0
     18341 TIP3     368      TIP3     H1       HT       0.417000       1.00800           0
     18342 TIP3     368      TIP3     H2       HT       0.417000       1.00800           0
     18343 TIP3     369      TIP3     OH2      OT      -0.834000       15.9994           0
     18344 TIP3     369      TIP3     H1       HT       0.417000       1.00800           0
     18345 TIP3     369      TIP3     H2       HT       0.417000       1.00800           0
     18346 TIP3     370      TIP3     OH2      OT      -0.834000       15.9994           0
     18347 TIP3     370      TIP3     H1       HT       0.417000       1.00800           0
     18348 TIP3     370      TIP3     H2       HT       0.417000       1.00800           0
     18349 TIP3     371      TIP3     OH2      OT      -0.834000       15.9994           0
     18350 TIP3     371      TIP3     H1       HT       0.417000       1.00800           0
     18351 TIP3     371      TIP3     H2       HT       0.417000       1.00800           0
     18352 TIP3     372      TIP3     OH2      OT      -0.834000       15.9994           0
     18353 TIP3     372      TIP3     H1       HT       0.417000       1.00800           0
     18354 TIP3     372      TIP3     H2       HT       0.417000       1.00800           0
     18355 TIP3     373      TIP3     OH2      OT      -0.834000       15.9994           0
     18356 TIP3     373      TIP3     H1       HT       0.417000       1.00800           0
     18357 TIP3     373      TIP3     H2       HT       0.417000       1.00800           0
     18358 TIP3     374      TIP3     OH2      OT      -0.834000       15.9994           0
     18359 TIP3     374      TIP3     H1       HT       0.417000       1.00800           0
     18360 TIP3     374      TIP3     H2       HT       0.417000       1.00800           0
     18361 TIP3     375      TIP3     OH2      OT      -0.834000       15.9994           0
     18362 TIP3     375      TIP3     H1       HT       0.417000       1.00800           0
     18363 TIP3     375      TIP3     H2       HT       0.417000       1.00800           0
     18364 TIP3     376      TIP3     OH2      OT      -0.834000       15.9994           0
     18365 TIP3     376      TIP3     H1       HT       0.417000       1.00800           0
     18366 TIP3     376      TIP3     H2       HT       0.417000       1.00800           0
     18367 TIP3     377      TIP3     OH2      OT      -0.834000       15.9994           0
     18368 TIP3     377      TIP3     H1       HT       0.417000       1.00800           0
     18369 TIP3     377      TIP3     H2       HT       0.417000       1.00800           0
     18370 TIP3     378      TIP3     OH2      OT      -0.834000       15.9994           0
     18371 TIP3     378      TIP3     H1       HT       0.417000       1.00800           0
     18372 TIP3     378      TIP3     H2       HT       0.417000       1.00800           0
     18373 TIP3     379      TIP3     OH2      OT      -0.834000       15.9994           0
     18374 TIP3     379      TIP3     H1       HT       0.417000       1.00800           0
     18375 TIP3     379      TIP3     H2       HT       0.417000       1.00800           0
     18376 TIP3     380      TIP3     OH2      OT      -0.834000       15.9994           0
     18377 TIP3     380      TIP3     H1       HT       0.417000       1.00800           0
     18378 TIP3     380      TIP3     H2       HT       0.417000       1.00800           0
     18379 TIP3     381      TIP3     OH2      OT      -0.834000       15.9994           0
     18380 TIP3     381      TIP3     H1       HT       0.417000       1.00800           0
     18381 TIP3     381      TIP3     H2       HT       0.417000       1.00800           0
     18382 TIP3     382      TIP3     OH2      OT      -0.834000       15.9994           0
     18383 TIP3     382      TIP3     H1       HT       0.417000       1.00800           0
     18384 TIP3     382      TIP3     H2       HT       0.417000       1.00800           0
     18385 TIP3     383      TIP3     OH2      OT      -0.834000       15.9994           0
     18386 TIP3     383      TIP3     H1       HT       0.417000       1.00800           0
     18387 TIP3     383      TIP3     H2       HT       0.417000       1.00800           0
     18388 TIP3     384      TIP3     OH2      OT      -0.834000       15.9994           0
     18389 TIP3     384      TIP3     H1       HT       0.417000       1.00800           0
     18390 TIP3     384      TIP3     H2       HT       0.417000       1.00800           0
     18391 TIP3     385      TIP3     OH2      OT      -0.834000       15.9994           0
     18392 TIP3     385      TIP3     H1       HT       0.417000       1.00800           0
     18393 TIP3     385      TIP3     H2       HT       0.417000       1.00800           0
     18394 TIP3     386      TIP3     OH2      OT      -0.834000       15.9994           0
     18395 TIP3     386      TIP3     H1       HT       0.417000       1.00800           0
     18396 TIP3     386      TIP3     H2       HT       0.417000       1.00800           0
     18397 TIP3     387      TIP3     OH2      OT      -0.834000       15.9994           0
     18398 TIP3     387      TIP3     H1       HT       0.417000       1.00800           0
     18399 TIP3     387      TIP3     H2       HT       0.417000       1.00800           0
     18400 TIP3     388      TIP3     OH2      OT      -0.834000       15.9994           0
     18401 TIP3     388      TIP3     H1       HT       0.417000       1.00800           0
     18402 TIP3     388      TIP3     H2       HT       0.417000       1.00800           0
     18403 TIP3     389      TIP3     OH2      OT      -0.834000       15.9994           0
     18404 TIP3     389      TIP3     H1       HT       0.417000       1.00800           0
     18405 TIP3     389      TIP3     H2       HT       0.417000       1.00800           0
     18406 TIP3     390      TIP3     OH2      OT      -0.834000       15.9994           0
     18407 TIP3     390      TIP3     H1       HT       0.417000       1.00800           0
     18408 TIP3     390      TIP3     H2       HT       0.417000       1.00800           0
     18409 TIP3     391      TIP3     OH2      OT      -0.834000       15.9994           0
     18410 TIP3     391      TIP3     H1       HT       0.417000       1.00800           0
     18411 TIP3     391      TIP3     H2       HT       0.417000       1.00800           0
     18412 TIP3     392      TIP3     OH2      OT      -0.834000       15.9994           0
     18413 TIP3     392      TIP3     H1       HT       0.417000       1.00800           0
     18414 TIP3     392      TIP3     H2       HT       0.417000       1.00800           0
     18415 TIP3     393      TIP3     OH2      OT      -0.834000       15.9994           0
     18416 TIP3     393      TIP3     H1       HT       0.417000       1.00800           0
     18417 TIP3     393      TIP3     H2       HT       0.417000       1.00800           0
     18418 TIP3     394      TIP3     OH2      OT      -0.834000       15.9994           0
     18419 TIP3     394      TIP3     H1       HT       0.417000       1.00800           0
     18420 TIP3     394      TIP3     H2       HT       0.417000       1.00800           0
     18421 TIP3     395      TIP3     OH2      OT      -0.834000       15.9994           0
     18422 TIP3     395      TIP3     H1       HT       0.417000       1.00800           0
     18423 TIP3     395      TIP3     H2       HT       0.417000       1.00800           0
     18424 TIP3     396      TIP3     OH2      OT      -0.834000       15.9994           0
     18425 TIP3     396      TIP3     H1       HT       0.417000       1.00800           0
     18426 TIP3     396      TIP3     H2       HT       0.417000       1.00800           0
     18427 TIP3     397      TIP3     OH2      OT      -0.834000       15.9994           0
     18428 TIP3     397      TIP3     H1       HT       0.417000       1.00800           0
     18429 TIP3     397      TIP3     H2       HT       0.417000       1.00800           0
     18430 TIP3     398      TIP3     OH2      OT      -0.834000       15.9994           0
     18431 TIP3     398      TIP3     H1       HT       0.417000       1.00800           0
     18432 TIP3     398      TIP3     H2       HT       0.417000       1.00800           0
     18433 TIP3     399      TIP3     OH2      OT      -0.834000       15.9994           0
     18434 TIP3     399      TIP3     H1       HT       0.417000       1.00800           0
     18435 TIP3     399      TIP3     H2       HT       0.417000       1.00800           0
     18436 TIP3     400      TIP3     OH2      OT      -0.834000       15.9994           0
     18437 TIP3     400      TIP3     H1       HT       0.417000       1.00800           0
     18438 TIP3     400      TIP3     H2       HT       0.417000       1.00800           0
     18439 TIP3     401      TIP3     OH2      OT      -0.834000       15.9994           0
     18440 TIP3     401      TIP3     H1       HT       0.417000       1.00800           0
     18441 TIP3     401      TIP3     H2       HT       0.417000       1.00800           0
     18442 TIP3     402      TIP3     OH2      OT      -0.834000       15.9994           0
     18443 TIP3     402      TIP3     H1       HT       0.417000       1.00800           0
     18444 TIP3     402      TIP3     H2       HT       0.417000       1.00800           0
     18445 TIP3     403      TIP3     OH2      OT      -0.834000       15.9994           0
     18446 TIP3     403      TIP3     H1       HT       0.417000       1.00800           0
     18447 TIP3     403      TIP3     H2       HT       0.417000       1.00800           0
     18448 TIP3     404      TIP3     OH2      OT      -0.834000       15.9994           0
     18449 TIP3     404      TIP3     H1       HT       0.417000       1.00800           0
     18450 TIP3     404      TIP3     H2       HT       0.417000       1.00800           0
     18451 TIP3     405      TIP3     OH2      OT      -0.834000       15.9994           0
     18452 TIP3     405      TIP3     H1       HT       0.417000       1.00800           0
     18453 TIP3     405      TIP3     H2       HT       0.417000       1.00800           0
     18454 TIP3     406      TIP3     OH2      OT      -0.834000       15.9994           0
     18455 TIP3     406      TIP3     H1       HT       0.417000       1.00800           0
     18456 TIP3     406      TIP3     H2       HT       0.417000       1.00800           0
     18457 TIP3     407      TIP3     OH2      OT      -0.834000       15.9994           0
     18458 TIP3     407      TIP3     H1       HT       0.417000       1.00800           0
     18459 TIP3     407      TIP3     H2       HT       0.417000       1.00800           0
     18460 TIP3     408      TIP3     OH2      OT      -0.834000       15.9994           0
     18461 TIP3     408      TIP3     H1       HT       0.417000       1.00800           0
     18462 TIP3     408      TIP3     H2       HT       0.417000       1.00800           0
     18463 TIP3     409      TIP3     OH2      OT      -0.834000       15.9994           0
     18464 TIP3     409      TIP3     H1       HT       0.417000       1.00800           0
     18465 TIP3     409      TIP3     H2       HT       0.417000       1.00800           0
     18466 TIP3     410      TIP3     OH2      OT      -0.834000       15.9994           0
     18467 TIP3     410      TIP3     H1       HT       0.417000       1.00800           0
     18468 TIP3     410      TIP3     H2       HT       0.417000       1.00800           0
     18469 TIP3     411      TIP3     OH2      OT      -0.834000       15.9994           0
     18470 TIP3     411      TIP3     H1       HT       0.417000       1.00800           0
     18471 TIP3     411      TIP3     H2       HT       0.417000       1.00800           0
     18472 TIP3     412      TIP3     OH2      OT      -0.834000       15.9994           0
     18473 TIP3     412      TIP3     H1       HT       0.417000       1.00800           0
     18474 TIP3     412      TIP3     H2       HT       0.417000       1.00800           0
     18475 TIP3     413      TIP3     OH2      OT      -0.834000       15.9994           0
     18476 TIP3     413      TIP3     H1       HT       0.417000       1.00800           0
     18477 TIP3     413      TIP3     H2       HT       0.417000       1.00800           0
     18478 TIP3     414      TIP3     OH2      OT      -0.834000       15.9994           0
     18479 TIP3     414      TIP3     H1       HT       0.417000       1.00800           0
     18480 TIP3     414      TIP3     H2       HT       0.417000       1.00800           0
     18481 TIP3     415      TIP3     OH2      OT      -0.834000       15.9994           0
     18482 TIP3     415      TIP3     H1       HT       0.417000       1.00800           0
     18483 TIP3     415      TIP3     H2       HT       0.417000       1.00800           0
     18484 TIP3     416      TIP3     OH2      OT      -0.834000       15.9994           0
     18485 TIP3     416      TIP3     H1       HT       0.417000       1.00800           0
     18486 TIP3     416      TIP3     H2       HT       0.417000       1.00800           0
     18487 TIP3     417      TIP3     OH2      OT      -0.834000       15.9994           0
     18488 TIP3     417      TIP3     H1       HT       0.417000       1.00800           0
     18489 TIP3     417      TIP3     H2       HT       0.417000       1.00800           0
     18490 TIP3     418      TIP3     OH2      OT      -0.834000       15.9994           0
     18491 TIP3     418      TIP3     H1       HT       0.417000       1.00800           0
     18492 TIP3     418      TIP3     H2       HT       0.417000       1.00800           0
     18493 TIP3     419      TIP3     OH2      OT      -0.834000       15.9994           0
     18494 TIP3     419      TIP3     H1       HT       0.417000       1.00800           0
     18495 TIP3     419      TIP3     H2       HT       0.417000       1.00800           0
     18496 TIP3     420      TIP3     OH2      OT      -0.834000       15.9994           0
     18497 TIP3     420      TIP3     H1       HT       0.417000       1.00800           0
     18498 TIP3     420      TIP3     H2       HT       0.417000       1.00800           0
     18499 TIP3     421      TIP3     OH2      OT      -0.834000       15.9994           0
     18500 TIP3     421      TIP3     H1       HT       0.417000       1.00800           0
     18501 TIP3     421      TIP3     H2       HT       0.417000       1.00800           0
     18502 TIP3     422      TIP3     OH2      OT      -0.834000       15.9994           0
     18503 TIP3     422      TIP3     H1       HT       0.417000       1.00800           0
     18504 TIP3     422      TIP3     H2       HT       0.417000       1.00800           0
     18505 TIP3     423      TIP3     OH2      OT      -0.834000       15.9994           0
     18506 TIP3     423      TIP3     H1       HT       0.417000       1.00800           0
     18507 TIP3     423      TIP3     H2       HT       0.417000       1.00800           0
     18508 TIP3     424      TIP3     OH2      OT      -0.834000       15.9994           0
     18509 TIP3     424      TIP3     H1       HT       0.417000       1.00800           0
     18510 TIP3     424      TIP3     H2       HT       0.417000       1.00800           0
     18511 TIP3     425      TIP3     OH2      OT      -0.834000       15.9994           0
     18512 TIP3     425      TIP3     H1       HT       0.417000       1.00800           0
     18513 TIP3     425      TIP3     H2       HT       0.417000       1.00800           0
     18514 TIP3     426      TIP3     OH2      OT      -0.834000       15.9994           0
     18515 TIP3     426      TIP3     H1       HT       0.417000       1.00800           0
     18516 TIP3     426      TIP3     H2       HT       0.417000       1.00800           0
     18517 TIP3     427      TIP3     OH2      OT      -0.834000       15.9994           0
     18518 TIP3     427      TIP3     H1       HT       0.417000       1.00800           0
     18519 TIP3     427      TIP3     H2       HT       0.417000       1.00800           0
     18520 TIP3     428      TIP3     OH2      OT      -0.834000       15.9994           0
     18521 TIP3     428      TIP3     H1       HT       0.417000       1.00800           0
     18522 TIP3     428      TIP3     H2       HT       0.417000       1.00800           0
     18523 TIP3     429      TIP3     OH2      OT      -0.834000       15.9994           0
     18524 TIP3     429      TIP3     H1       HT       0.417000       1.00800           0
     18525 TIP3     429      TIP3     H2       HT       0.417000       1.00800           0
     18526 TIP3     430      TIP3     OH2      OT      -0.834000       15.9994           0
     18527 TIP3     430      TIP3     H1       HT       0.417000       1.00800           0
     18528 TIP3     430      TIP3     H2       HT       0.417000       1.00800           0
     18529 TIP3     431      TIP3     OH2      OT      -0.834000       15.9994           0
     18530 TIP3     431      TIP3     H1       HT       0.417000       1.00800           0
     18531 TIP3     431      TIP3     H2       HT       0.417000       1.00800           0
     18532 TIP3     432      TIP3     OH2      OT      -0.834000       15.9994           0
     18533 TIP3     432      TIP3     H1       HT       0.417000       1.00800           0
     18534 TIP3     432      TIP3     H2       HT       0.417000       1.00800           0
     18535 TIP3     433      TIP3     OH2      OT      -0.834000       15.9994           0
     18536 TIP3     433      TIP3     H1       HT       0.417000       1.00800           0
     18537 TIP3     433      TIP3     H2       HT       0.417000       1.00800           0
     18538 TIP3     434      TIP3     OH2      OT      -0.834000       15.9994           0
     18539 TIP3     434      TIP3     H1       HT       0.417000       1.00800           0
     18540 TIP3     434      TIP3     H2       HT       0.417000       1.00800           0
     18541 TIP3     435      TIP3     OH2      OT      -0.834000       15.9994           0
     18542 TIP3     435      TIP3     H1       HT       0.417000       1.00800           0
     18543 TIP3     435      TIP3     H2       HT       0.417000       1.00800           0
     18544 TIP3     436      TIP3     OH2      OT      -0.834000       15.9994           0
     18545 TIP3     436      TIP3     H1       HT       0.417000       1.00800           0
     18546 TIP3     436      TIP3     H2       HT       0.417000       1.00800           0
     18547 TIP3     437      TIP3     OH2      OT      -0.834000       15.9994           0
     18548 TIP3     437      TIP3     H1       HT       0.417000       1.00800           0
     18549 TIP3     437      TIP3     H2       HT       0.417000       1.00800           0
     18550 TIP3     438      TIP3     OH2      OT      -0.834000       15.9994           0
     18551 TIP3     438      TIP3     H1       HT       0.417000       1.00800           0
     18552 TIP3     438      TIP3     H2       HT       0.417000       1.00800           0
     18553 TIP3     439      TIP3     OH2      OT      -0.834000       15.9994           0
     18554 TIP3     439      TIP3     H1       HT       0.417000       1.00800           0
     18555 TIP3     439      TIP3     H2       HT       0.417000       1.00800           0
     18556 TIP3     440      TIP3     OH2      OT      -0.834000       15.9994           0
     18557 TIP3     440      TIP3     H1       HT       0.417000       1.00800           0
     18558 TIP3     440      TIP3     H2       HT       0.417000       1.00800           0
     18559 TIP3     441      TIP3     OH2      OT      -0.834000       15.9994           0
     18560 TIP3     441      TIP3     H1       HT       0.417000       1.00800           0
     18561 TIP3     441      TIP3     H2       HT       0.417000       1.00800           0
     18562 TIP3     442      TIP3     OH2      OT      -0.834000       15.9994           0
     18563 TIP3     442      TIP3     H1       HT       0.417000       1.00800           0
     18564 TIP3     442      TIP3     H2       HT       0.417000       1.00800           0
     18565 TIP3     443      TIP3     OH2      OT      -0.834000       15.9994           0
     18566 TIP3     443      TIP3     H1       HT       0.417000       1.00800           0
     18567 TIP3     443      TIP3     H2       HT       0.417000       1.00800           0
     18568 TIP3     444      TIP3     OH2      OT      -0.834000       15.9994           0
     18569 TIP3     444      TIP3     H1       HT       0.417000       1.00800           0
     18570 TIP3     444      TIP3     H2       HT       0.417000       1.00800           0
     18571 TIP3     445      TIP3     OH2      OT      -0.834000       15.9994           0
     18572 TIP3     445      TIP3     H1       HT       0.417000       1.00800           0
     18573 TIP3     445      TIP3     H2       HT       0.417000       1.00800           0
     18574 TIP3     446      TIP3     OH2      OT      -0.834000       15.9994           0
     18575 TIP3     446      TIP3     H1       HT       0.417000       1.00800           0
     18576 TIP3     446      TIP3     H2       HT       0.417000       1.00800           0
     18577 TIP3     447      TIP3     OH2      OT      -0.834000       15.9994           0
     18578 TIP3     447      TIP3     H1       HT       0.417000       1.00800           0
     18579 TIP3     447      TIP3     H2       HT       0.417000       1.00800           0
     18580 TIP3     448      TIP3     OH2      OT      -0.834000       15.9994           0
     18581 TIP3     448      TIP3     H1       HT       0.417000       1.00800           0
     18582 TIP3     448      TIP3     H2       HT       0.417000       1.00800           0
     18583 TIP3     449      TIP3     OH2      OT      -0.834000       15.9994           0
     18584 TIP3     449      TIP3     H1       HT       0.417000       1.00800           0
     18585 TIP3     449      TIP3     H2       HT       0.417000       1.00800           0
     18586 TIP3     450      TIP3     OH2      OT      -0.834000       15.9994           0
     18587 TIP3     450      TIP3     H1       HT       0.417000       1.00800           0
     18588 TIP3     450      TIP3     H2       HT       0.417000       1.00800           0
     18589 TIP3     451      TIP3     OH2      OT      -0.834000       15.9994           0
     18590 TIP3     451      TIP3     H1       HT       0.417000       1.00800           0
     18591 TIP3     451      TIP3     H2       HT       0.417000       1.00800           0
     18592 TIP3     452      TIP3     OH2      OT      -0.834000       15.9994           0
     18593 TIP3     452      TIP3     H1       HT       0.417000       1.00800           0
     18594 TIP3     452      TIP3     H2       HT       0.417000       1.00800           0
     18595 TIP3     453      TIP3     OH2      OT      -0.834000       15.9994           0
     18596 TIP3     453      TIP3     H1       HT       0.417000       1.00800           0
     18597 TIP3     453      TIP3     H2       HT       0.417000       1.00800           0
     18598 TIP3     454      TIP3     OH2      OT      -0.834000       15.9994           0
     18599 TIP3     454      TIP3     H1       HT       0.417000       1.00800           0
     18600 TIP3     454      TIP3     H2       HT       0.417000       1.00800           0
     18601 TIP3     455      TIP3     OH2      OT      -0.834000       15.9994           0
     18602 TIP3     455      TIP3     H1       HT       0.417000       1.00800           0
     18603 TIP3     455      TIP3     H2       HT       0.417000       1.00800           0
     18604 TIP3     456      TIP3     OH2      OT      -0.834000       15.9994           0
     18605 TIP3     456      TIP3     H1       HT       0.417000       1.00800           0
     18606 TIP3     456      TIP3     H2       HT       0.417000       1.00800           0
     18607 TIP3     457      TIP3     OH2      OT      -0.834000       15.9994           0
     18608 TIP3     457      TIP3     H1       HT       0.417000       1.00800           0
     18609 TIP3     457      TIP3     H2       HT       0.417000       1.00800           0
     18610 TIP3     458      TIP3     OH2      OT      -0.834000       15.9994           0
     18611 TIP3     458      TIP3     H1       HT       0.417000       1.00800           0
     18612 TIP3     458      TIP3     H2       HT       0.417000       1.00800           0
     18613 TIP3     459      TIP3     OH2      OT      -0.834000       15.9994           0
     18614 TIP3     459      TIP3     H1       HT       0.417000       1.00800           0
     18615 TIP3     459      TIP3     H2       HT       0.417000       1.00800           0
     18616 TIP3     460      TIP3     OH2      OT      -0.834000       15.9994           0
     18617 TIP3     460      TIP3     H1       HT       0.417000       1.00800           0
     18618 TIP3     460      TIP3     H2       HT       0.417000       1.00800           0
     18619 TIP3     461      TIP3     OH2      OT      -0.834000       15.9994           0
     18620 TIP3     461      TIP3     H1       HT       0.417000       1.00800           0
     18621 TIP3     461      TIP3     H2       HT       0.417000       1.00800           0
     18622 TIP3     462      TIP3     OH2      OT      -0.834000       15.9994           0
     18623 TIP3     462      TIP3     H1       HT       0.417000       1.00800           0
     18624 TIP3     462      TIP3     H2       HT       0.417000       1.00800           0
     18625 TIP3     463      TIP3     OH2      OT      -0.834000       15.9994           0
     18626 TIP3     463      TIP3     H1       HT       0.417000       1.00800           0
     18627 TIP3     463      TIP3     H2       HT       0.417000       1.00800           0
     18628 TIP3     464      TIP3     OH2      OT      -0.834000       15.9994           0
     18629 TIP3     464      TIP3     H1       HT       0.417000       1.00800           0
     18630 TIP3     464      TIP3     H2       HT       0.417000       1.00800           0
     18631 TIP3     465      TIP3     OH2      OT      -0.834000       15.9994           0
     18632 TIP3     465      TIP3     H1       HT       0.417000       1.00800           0
     18633 TIP3     465      TIP3     H2       HT       0.417000       1.00800           0
     18634 TIP3     466      TIP3     OH2      OT      -0.834000       15.9994           0
     18635 TIP3     466      TIP3     H1       HT       0.417000       1.00800           0
     18636 TIP3     466      TIP3     H2       HT       0.417000       1.00800           0
     18637 TIP3     467      TIP3     OH2      OT      -0.834000       15.9994           0
     18638 TIP3     467      TIP3     H1       HT       0.417000       1.00800           0
     18639 TIP3     467      TIP3     H2       HT       0.417000       1.00800           0
     18640 TIP3     468      TIP3     OH2      OT      -0.834000       15.9994           0
     18641 TIP3     468      TIP3     H1       HT       0.417000       1.00800           0
     18642 TIP3     468      TIP3     H2       HT       0.417000       1.00800           0
     18643 TIP3     469      TIP3     OH2      OT      -0.834000       15.9994           0
     18644 TIP3     469      TIP3     H1       HT       0.417000       1.00800           0
     18645 TIP3     469      TIP3     H2       HT       0.417000       1.00800           0
     18646 TIP3     470      TIP3     OH2      OT      -0.834000       15.9994           0
     18647 TIP3     470      TIP3     H1       HT       0.417000       1.00800           0
     18648 TIP3     470      TIP3     H2       HT       0.417000       1.00800           0
     18649 TIP3     471      TIP3     OH2      OT      -0.834000       15.9994           0
     18650 TIP3     471      TIP3     H1       HT       0.417000       1.00800           0
     18651 TIP3     471      TIP3     H2       HT       0.417000       1.00800           0
     18652 TIP3     472      TIP3     OH2      OT      -0.834000       15.9994           0
     18653 TIP3     472      TIP3     H1       HT       0.417000       1.00800           0
     18654 TIP3     472      TIP3     H2       HT       0.417000       1.00800           0
     18655 TIP3     473      TIP3     OH2      OT      -0.834000       15.9994           0
     18656 TIP3     473      TIP3     H1       HT       0.417000       1.00800           0
     18657 TIP3     473      TIP3     H2       HT       0.417000       1.00800           0
     18658 TIP3     474      TIP3     OH2      OT      -0.834000       15.9994           0
     18659 TIP3     474      TIP3     H1       HT       0.417000       1.00800           0
     18660 TIP3     474      TIP3     H2       HT       0.417000       1.00800           0
     18661 TIP3     475      TIP3     OH2      OT      -0.834000       15.9994           0
     18662 TIP3     475      TIP3     H1       HT       0.417000       1.00800           0
     18663 TIP3     475      TIP3     H2       HT       0.417000       1.00800           0
     18664 TIP3     476      TIP3     OH2      OT      -0.834000       15.9994           0
     18665 TIP3     476      TIP3     H1       HT       0.417000       1.00800           0
     18666 TIP3     476      TIP3     H2       HT       0.417000       1.00800           0
     18667 TIP3     477      TIP3     OH2      OT      -0.834000       15.9994           0
     18668 TIP3     477      TIP3     H1       HT       0.417000       1.00800           0
     18669 TIP3     477      TIP3     H2       HT       0.417000       1.00800           0
     18670 TIP3     478      TIP3     OH2      OT      -0.834000       15.9994           0
     18671 TIP3     478      TIP3     H1       HT       0.417000       1.00800           0
     18672 TIP3     478      TIP3     H2       HT       0.417000       1.00800           0
     18673 TIP3     479      TIP3     OH2      OT      -0.834000       15.9994           0
     18674 TIP3     479      TIP3     H1       HT       0.417000       1.00800           0
     18675 TIP3     479      TIP3     H2       HT       0.417000       1.00800           0
     18676 TIP3     480      TIP3     OH2      OT      -0.834000       15.9994           0
     18677 TIP3     480      TIP3     H1       HT       0.417000       1.00800           0
     18678 TIP3     480      TIP3     H2       HT       0.417000       1.00800           0
     18679 TIP3     481      TIP3     OH2      OT      -0.834000       15.9994           0
     18680 TIP3     481      TIP3     H1       HT       0.417000       1.00800           0
     18681 TIP3     481      TIP3     H2       HT       0.417000       1.00800           0
     18682 TIP3     482      TIP3     OH2      OT      -0.834000       15.9994           0
     18683 TIP3     482      TIP3     H1       HT       0.417000       1.00800           0
     18684 TIP3     482      TIP3     H2       HT       0.417000       1.00800           0
     18685 TIP3     483      TIP3     OH2      OT      -0.834000       15.9994           0
     18686 TIP3     483      TIP3     H1       HT       0.417000       1.00800           0
     18687 TIP3     483      TIP3     H2       HT       0.417000       1.00800           0
     18688 TIP3     484      TIP3     OH2      OT      -0.834000       15.9994           0
     18689 TIP3     484      TIP3     H1       HT       0.417000       1.00800           0
     18690 TIP3     484      TIP3     H2       HT       0.417000       1.00800           0
     18691 TIP3     485      TIP3     OH2      OT      -0.834000       15.9994           0
     18692 TIP3     485      TIP3     H1       HT       0.417000       1.00800           0
     18693 TIP3     485      TIP3     H2       HT       0.417000       1.00800           0
     18694 TIP3     486      TIP3     OH2      OT      -0.834000       15.9994           0
     18695 TIP3     486      TIP3     H1       HT       0.417000       1.00800           0
     18696 TIP3     486      TIP3     H2       HT       0.417000       1.00800           0
     18697 TIP3     487      TIP3     OH2      OT      -0.834000       15.9994           0
     18698 TIP3     487      TIP3     H1       HT       0.417000       1.00800           0
     18699 TIP3     487      TIP3     H2       HT       0.417000       1.00800           0
     18700 TIP3     488      TIP3     OH2      OT      -0.834000       15.9994           0
     18701 TIP3     488      TIP3     H1       HT       0.417000       1.00800           0
     18702 TIP3     488      TIP3     H2       HT       0.417000       1.00800           0
     18703 TIP3     489      TIP3     OH2      OT      -0.834000       15.9994           0
     18704 TIP3     489      TIP3     H1       HT       0.417000       1.00800           0
     18705 TIP3     489      TIP3     H2       HT       0.417000       1.00800           0
     18706 TIP3     490      TIP3     OH2      OT      -0.834000       15.9994           0
     18707 TIP3     490      TIP3     H1       HT       0.417000       1.00800           0
     18708 TIP3     490      TIP3     H2       HT       0.417000       1.00800           0
     18709 TIP3     491      TIP3     OH2      OT      -0.834000       15.9994           0
     18710 TIP3     491      TIP3     H1       HT       0.417000       1.00800           0
     18711 TIP3     491      TIP3     H2       HT       0.417000       1.00800           0
     18712 TIP3     492      TIP3     OH2      OT      -0.834000       15.9994           0
     18713 TIP3     492      TIP3     H1       HT       0.417000       1.00800           0
     18714 TIP3     492      TIP3     H2       HT       0.417000       1.00800           0
     18715 TIP3     493      TIP3     OH2      OT      -0.834000       15.9994           0
     18716 TIP3     493      TIP3     H1       HT       0.417000       1.00800           0
     18717 TIP3     493      TIP3     H2       HT       0.417000       1.00800           0
     18718 TIP3     494      TIP3     OH2      OT      -0.834000       15.9994           0
     18719 TIP3     494      TIP3     H1       HT       0.417000       1.00800           0
     18720 TIP3     494      TIP3     H2       HT       0.417000       1.00800           0
     18721 TIP3     495      TIP3     OH2      OT      -0.834000       15.9994           0
     18722 TIP3     495      TIP3     H1       HT       0.417000       1.00800           0
     18723 TIP3     495      TIP3     H2       HT       0.417000       1.00800           0
     18724 TIP3     496      TIP3     OH2      OT      -0.834000       15.9994           0
     18725 TIP3     496      TIP3     H1       HT       0.417000       1.00800           0
     18726 TIP3     496      TIP3     H2       HT       0.417000       1.00800           0
     18727 TIP3     497      TIP3     OH2      OT      -0.834000       15.9994           0
     18728 TIP3     497      TIP3     H1       HT       0.417000       1.00800           0
     18729 TIP3     497      TIP3     H2       HT       0.417000       1.00800           0
     18730 TIP3     498      TIP3     OH2      OT      -0.834000       15.9994           0
     18731 TIP3     498      TIP3     H1       HT       0.417000       1.00800           0
     18732 TIP3     498      TIP3     H2       HT       0.417000       1.00800           0
     18733 TIP3     499      TIP3     OH2      OT      -0.834000       15.9994           0
     18734 TIP3     499      TIP3     H1       HT       0.417000       1.00800           0
     18735 TIP3     499      TIP3     H2       HT       0.417000       1.00800           0
     18736 TIP3     500      TIP3     OH2      OT      -0.834000       15.9994           0
     18737 TIP3     500      TIP3     H1       HT       0.417000       1.00800           0
     18738 TIP3     500      TIP3     H2       HT       0.417000       1.00800           0
     18739 TIP3     501      TIP3     OH2      OT      -0.834000       15.9994           0
     18740 TIP3     501      TIP3     H1       HT       0.417000       1.00800           0
     18741 TIP3     501      TIP3     H2       HT       0.417000       1.00800           0
     18742 TIP3     502      TIP3     OH2      OT      -0.834000       15.9994           0
     18743 TIP3     502      TIP3     H1       HT       0.417000       1.00800           0
     18744 TIP3     502      TIP3     H2       HT       0.417000       1.00800           0
     18745 TIP3     503      TIP3     OH2      OT      -0.834000       15.9994           0
     18746 TIP3     503      TIP3     H1       HT       0.417000       1.00800           0
     18747 TIP3     503      TIP3     H2       HT       0.417000       1.00800           0
     18748 TIP3     504      TIP3     OH2      OT      -0.834000       15.9994           0
     18749 TIP3     504      TIP3     H1       HT       0.417000       1.00800           0
     18750 TIP3     504      TIP3     H2       HT       0.417000       1.00800           0
     18751 TIP3     505      TIP3     OH2      OT      -0.834000       15.9994           0
     18752 TIP3     505      TIP3     H1       HT       0.417000       1.00800           0
     18753 TIP3     505      TIP3     H2       HT       0.417000       1.00800           0
     18754 TIP3     506      TIP3     OH2      OT      -0.834000       15.9994           0
     18755 TIP3     506      TIP3     H1       HT       0.417000       1.00800           0
     18756 TIP3     506      TIP3     H2       HT       0.417000       1.00800           0
     18757 TIP3     507      TIP3     OH2      OT      -0.834000       15.9994           0
     18758 TIP3     507      TIP3     H1       HT       0.417000       1.00800           0
     18759 TIP3     507      TIP3     H2       HT       0.417000       1.00800           0
     18760 TIP3     508      TIP3     OH2      OT      -0.834000       15.9994           0
     18761 TIP3     508      TIP3     H1       HT       0.417000       1.00800           0
     18762 TIP3     508      TIP3     H2       HT       0.417000       1.00800           0
     18763 TIP3     509      TIP3     OH2      OT      -0.834000       15.9994           0
     18764 TIP3     509      TIP3     H1       HT       0.417000       1.00800           0
     18765 TIP3     509      TIP3     H2       HT       0.417000       1.00800           0
     18766 TIP3     510      TIP3     OH2      OT      -0.834000       15.9994           0
     18767 TIP3     510      TIP3     H1       HT       0.417000       1.00800           0
     18768 TIP3     510      TIP3     H2       HT       0.417000       1.00800           0
     18769 TIP3     511      TIP3     OH2      OT      -0.834000       15.9994           0
     18770 TIP3     511      TIP3     H1       HT       0.417000       1.00800           0
     18771 TIP3     511      TIP3     H2       HT       0.417000       1.00800           0
     18772 TIP3     512      TIP3     OH2      OT      -0.834000       15.9994           0
     18773 TIP3     512      TIP3     H1       HT       0.417000       1.00800           0
     18774 TIP3     512      TIP3     H2       HT       0.417000       1.00800           0
     18775 TIP3     513      TIP3     OH2      OT      -0.834000       15.9994           0
     18776 TIP3     513      TIP3     H1       HT       0.417000       1.00800           0
     18777 TIP3     513      TIP3     H2       HT       0.417000       1.00800           0
     18778 TIP3     514      TIP3     OH2      OT      -0.834000       15.9994           0
     18779 TIP3     514      TIP3     H1       HT       0.417000       1.00800           0
     18780 TIP3     514      TIP3     H2       HT       0.417000       1.00800           0
     18781 TIP3     515      TIP3     OH2      OT      -0.834000       15.9994           0
     18782 TIP3     515      TIP3     H1       HT       0.417000       1.00800           0
     18783 TIP3     515      TIP3     H2       HT       0.417000       1.00800           0
     18784 TIP3     516      TIP3     OH2      OT      -0.834000       15.9994           0
     18785 TIP3     516      TIP3     H1       HT       0.417000       1.00800           0
     18786 TIP3     516      TIP3     H2       HT       0.417000       1.00800           0
     18787 TIP3     517      TIP3     OH2      OT      -0.834000       15.9994           0
     18788 TIP3     517      TIP3     H1       HT       0.417000       1.00800           0
     18789 TIP3     517      TIP3     H2       HT       0.417000       1.00800           0
     18790 TIP3     518      TIP3     OH2      OT      -0.834000       15.9994           0
     18791 TIP3     518      TIP3     H1       HT       0.417000       1.00800           0
     18792 TIP3     518      TIP3     H2       HT       0.417000       1.00800           0
     18793 TIP3     519      TIP3     OH2      OT      -0.834000       15.9994           0
     18794 TIP3     519      TIP3     H1       HT       0.417000       1.00800           0
     18795 TIP3     519      TIP3     H2       HT       0.417000       1.00800           0
     18796 TIP3     520      TIP3     OH2      OT      -0.834000       15.9994           0
     18797 TIP3     520      TIP3     H1       HT       0.417000       1.00800           0
     18798 TIP3     520      TIP3     H2       HT       0.417000       1.00800           0
     18799 TIP3     521      TIP3     OH2      OT      -0.834000       15.9994           0
     18800 TIP3     521      TIP3     H1       HT       0.417000       1.00800           0
     18801 TIP3     521      TIP3     H2       HT       0.417000       1.00800           0
     18802 TIP3     522      TIP3     OH2      OT      -0.834000       15.9994           0
     18803 TIP3     522      TIP3     H1       HT       0.417000       1.00800           0
     18804 TIP3     522      TIP3     H2       HT       0.417000       1.00800           0
     18805 TIP3     523      TIP3     OH2      OT      -0.834000       15.9994           0
     18806 TIP3     523      TIP3     H1       HT       0.417000       1.00800           0
     18807 TIP3     523      TIP3     H2       HT       0.417000       1.00800           0
     18808 TIP3     524      TIP3     OH2      OT      -0.834000       15.9994           0
     18809 TIP3     524      TIP3     H1       HT       0.417000       1.00800           0
     18810 TIP3     524      TIP3     H2       HT       0.417000       1.00800           0
     18811 TIP3     525      TIP3     OH2      OT      -0.834000       15.9994           0
     18812 TIP3     525      TIP3     H1       HT       0.417000       1.00800           0
     18813 TIP3     525      TIP3     H2       HT       0.417000       1.00800           0
     18814 TIP3     526      TIP3     OH2      OT      -0.834000       15.9994           0
     18815 TIP3     526      TIP3     H1       HT       0.417000       1.00800           0
     18816 TIP3     526      TIP3     H2       HT       0.417000       1.00800           0
     18817 TIP3     527      TIP3     OH2      OT      -0.834000       15.9994           0
     18818 TIP3     527      TIP3     H1       HT       0.417000       1.00800           0
     18819 TIP3     527      TIP3     H2       HT       0.417000       1.00800           0
     18820 TIP3     528      TIP3     OH2      OT      -0.834000       15.9994           0
     18821 TIP3     528      TIP3     H1       HT       0.417000       1.00800           0
     18822 TIP3     528      TIP3     H2       HT       0.417000       1.00800           0
     18823 TIP3     529      TIP3     OH2      OT      -0.834000       15.9994           0
     18824 TIP3     529      TIP3     H1       HT       0.417000       1.00800           0
     18825 TIP3     529      TIP3     H2       HT       0.417000       1.00800           0
     18826 TIP3     530      TIP3     OH2      OT      -0.834000       15.9994           0
     18827 TIP3     530      TIP3     H1       HT       0.417000       1.00800           0
     18828 TIP3     530      TIP3     H2       HT       0.417000       1.00800           0
     18829 TIP3     531      TIP3     OH2      OT      -0.834000       15.9994           0
     18830 TIP3     531      TIP3     H1       HT       0.417000       1.00800           0
     18831 TIP3     531      TIP3     H2       HT       0.417000       1.00800           0
     18832 TIP3     532      TIP3     OH2      OT      -0.834000       15.9994           0
     18833 TIP3     532      TIP3     H1       HT       0.417000       1.00800           0
     18834 TIP3     532      TIP3     H2       HT       0.417000       1.00800           0
     18835 TIP3     533      TIP3     OH2      OT      -0.834000       15.9994           0
     18836 TIP3     533      TIP3     H1       HT       0.417000       1.00800           0
     18837 TIP3     533      TIP3     H2       HT       0.417000       1.00800           0
     18838 TIP3     534      TIP3     OH2      OT      -0.834000       15.9994           0
     18839 TIP3     534      TIP3     H1       HT       0.417000       1.00800           0
     18840 TIP3     534      TIP3     H2       HT       0.417000       1.00800           0
     18841 TIP3     535      TIP3     OH2      OT      -0.834000       15.9994           0
     18842 TIP3     535      TIP3     H1       HT       0.417000       1.00800           0
     18843 TIP3     535      TIP3     H2       HT       0.417000       1.00800           0
     18844 TIP3     536      TIP3     OH2      OT      -0.834000       15.9994           0
     18845 TIP3     536      TIP3     H1       HT       0.417000       1.00800           0
     18846 TIP3     536      TIP3     H2       HT       0.417000       1.00800           0
     18847 TIP3     537      TIP3     OH2      OT      -0.834000       15.9994           0
     18848 TIP3     537      TIP3     H1       HT       0.417000       1.00800           0
     18849 TIP3     537      TIP3     H2       HT       0.417000       1.00800           0
     18850 TIP3     538      TIP3     OH2      OT      -0.834000       15.9994           0
     18851 TIP3     538      TIP3     H1       HT       0.417000       1.00800           0
     18852 TIP3     538      TIP3     H2       HT       0.417000       1.00800           0
     18853 TIP3     539      TIP3     OH2      OT      -0.834000       15.9994           0
     18854 TIP3     539      TIP3     H1       HT       0.417000       1.00800           0
     18855 TIP3     539      TIP3     H2       HT       0.417000       1.00800           0
     18856 TIP3     540      TIP3     OH2      OT      -0.834000       15.9994           0
     18857 TIP3     540      TIP3     H1       HT       0.417000       1.00800           0
     18858 TIP3     540      TIP3     H2       HT       0.417000       1.00800           0
     18859 TIP3     541      TIP3     OH2      OT      -0.834000       15.9994           0
     18860 TIP3     541      TIP3     H1       HT       0.417000       1.00800           0
     18861 TIP3     541      TIP3     H2       HT       0.417000       1.00800           0
     18862 TIP3     542      TIP3     OH2      OT      -0.834000       15.9994           0
     18863 TIP3     542      TIP3     H1       HT       0.417000       1.00800           0
     18864 TIP3     542      TIP3     H2       HT       0.417000       1.00800           0
     18865 TIP3     543      TIP3     OH2      OT      -0.834000       15.9994           0
     18866 TIP3     543      TIP3     H1       HT       0.417000       1.00800           0
     18867 TIP3     543      TIP3     H2       HT       0.417000       1.00800           0
     18868 TIP3     544      TIP3     OH2      OT      -0.834000       15.9994           0
     18869 TIP3     544      TIP3     H1       HT       0.417000       1.00800           0
     18870 TIP3     544      TIP3     H2       HT       0.417000       1.00800           0
     18871 TIP3     545      TIP3     OH2      OT      -0.834000       15.9994           0
     18872 TIP3     545      TIP3     H1       HT       0.417000       1.00800           0
     18873 TIP3     545      TIP3     H2       HT       0.417000       1.00800           0
     18874 TIP3     546      TIP3     OH2      OT      -0.834000       15.9994           0
     18875 TIP3     546      TIP3     H1       HT       0.417000       1.00800           0
     18876 TIP3     546      TIP3     H2       HT       0.417000       1.00800           0
     18877 TIP3     547      TIP3     OH2      OT      -0.834000       15.9994           0
     18878 TIP3     547      TIP3     H1       HT       0.417000       1.00800           0
     18879 TIP3     547      TIP3     H2       HT       0.417000       1.00800           0
     18880 TIP3     548      TIP3     OH2      OT      -0.834000       15.9994           0
     18881 TIP3     548      TIP3     H1       HT       0.417000       1.00800           0
     18882 TIP3     548      TIP3     H2       HT       0.417000       1.00800           0
     18883 TIP3     549      TIP3     OH2      OT      -0.834000       15.9994           0
     18884 TIP3     549      TIP3     H1       HT       0.417000       1.00800           0
     18885 TIP3     549      TIP3     H2       HT       0.417000       1.00800           0
     18886 TIP3     550      TIP3     OH2      OT      -0.834000       15.9994           0
     18887 TIP3     550      TIP3     H1       HT       0.417000       1.00800           0
     18888 TIP3     550      TIP3     H2       HT       0.417000       1.00800           0
     18889 TIP3     551      TIP3     OH2      OT      -0.834000       15.9994           0
     18890 TIP3     551      TIP3     H1       HT       0.417000       1.00800           0
     18891 TIP3     551      TIP3     H2       HT       0.417000       1.00800           0
     18892 TIP3     552      TIP3     OH2      OT      -0.834000       15.9994           0
     18893 TIP3     552      TIP3     H1       HT       0.417000       1.00800           0
     18894 TIP3     552      TIP3     H2       HT       0.417000       1.00800           0
     18895 TIP3     553      TIP3     OH2      OT      -0.834000       15.9994           0
     18896 TIP3     553      TIP3     H1       HT       0.417000       1.00800           0
     18897 TIP3     553      TIP3     H2       HT       0.417000       1.00800           0
     18898 TIP3     554      TIP3     OH2      OT      -0.834000       15.9994           0
     18899 TIP3     554      TIP3     H1       HT       0.417000       1.00800           0
     18900 TIP3     554      TIP3     H2       HT       0.417000       1.00800           0
     18901 TIP3     555      TIP3     OH2      OT      -0.834000       15.9994           0
     18902 TIP3     555      TIP3     H1       HT       0.417000       1.00800           0
     18903 TIP3     555      TIP3     H2       HT       0.417000       1.00800           0
     18904 TIP3     556      TIP3     OH2      OT      -0.834000       15.9994           0
     18905 TIP3     556      TIP3     H1       HT       0.417000       1.00800           0
     18906 TIP3     556      TIP3     H2       HT       0.417000       1.00800           0
     18907 TIP3     557      TIP3     OH2      OT      -0.834000       15.9994           0
     18908 TIP3     557      TIP3     H1       HT       0.417000       1.00800           0
     18909 TIP3     557      TIP3     H2       HT       0.417000       1.00800           0
     18910 TIP3     558      TIP3     OH2      OT      -0.834000       15.9994           0
     18911 TIP3     558      TIP3     H1       HT       0.417000       1.00800           0
     18912 TIP3     558      TIP3     H2       HT       0.417000       1.00800           0
     18913 TIP3     559      TIP3     OH2      OT      -0.834000       15.9994           0
     18914 TIP3     559      TIP3     H1       HT       0.417000       1.00800           0
     18915 TIP3     559      TIP3     H2       HT       0.417000       1.00800           0
     18916 TIP3     560      TIP3     OH2      OT      -0.834000       15.9994           0
     18917 TIP3     560      TIP3     H1       HT       0.417000       1.00800           0
     18918 TIP3     560      TIP3     H2       HT       0.417000       1.00800           0
     18919 TIP3     561      TIP3     OH2      OT      -0.834000       15.9994           0
     18920 TIP3     561      TIP3     H1       HT       0.417000       1.00800           0
     18921 TIP3     561      TIP3     H2       HT       0.417000       1.00800           0
     18922 TIP3     562      TIP3     OH2      OT      -0.834000       15.9994           0
     18923 TIP3     562      TIP3     H1       HT       0.417000       1.00800           0
     18924 TIP3     562      TIP3     H2       HT       0.417000       1.00800           0
     18925 TIP3     563      TIP3     OH2      OT      -0.834000       15.9994           0
     18926 TIP3     563      TIP3     H1       HT       0.417000       1.00800           0
     18927 TIP3     563      TIP3     H2       HT       0.417000       1.00800           0
     18928 TIP3     564      TIP3     OH2      OT      -0.834000       15.9994           0
     18929 TIP3     564      TIP3     H1       HT       0.417000       1.00800           0
     18930 TIP3     564      TIP3     H2       HT       0.417000       1.00800           0
     18931 TIP3     565      TIP3     OH2      OT      -0.834000       15.9994           0
     18932 TIP3     565      TIP3     H1       HT       0.417000       1.00800           0
     18933 TIP3     565      TIP3     H2       HT       0.417000       1.00800           0
     18934 TIP3     566      TIP3     OH2      OT      -0.834000       15.9994           0
     18935 TIP3     566      TIP3     H1       HT       0.417000       1.00800           0
     18936 TIP3     566      TIP3     H2       HT       0.417000       1.00800           0
     18937 TIP3     567      TIP3     OH2      OT      -0.834000       15.9994           0
     18938 TIP3     567      TIP3     H1       HT       0.417000       1.00800           0
     18939 TIP3     567      TIP3     H2       HT       0.417000       1.00800           0
     18940 TIP3     568      TIP3     OH2      OT      -0.834000       15.9994           0
     18941 TIP3     568      TIP3     H1       HT       0.417000       1.00800           0
     18942 TIP3     568      TIP3     H2       HT       0.417000       1.00800           0
     18943 TIP3     569      TIP3     OH2      OT      -0.834000       15.9994           0
     18944 TIP3     569      TIP3     H1       HT       0.417000       1.00800           0
     18945 TIP3     569      TIP3     H2       HT       0.417000       1.00800           0
     18946 TIP3     570      TIP3     OH2      OT      -0.834000       15.9994           0
     18947 TIP3     570      TIP3     H1       HT       0.417000       1.00800           0
     18948 TIP3     570      TIP3     H2       HT       0.417000       1.00800           0
     18949 TIP3     571      TIP3     OH2      OT      -0.834000       15.9994           0
     18950 TIP3     571      TIP3     H1       HT       0.417000       1.00800           0
     18951 TIP3     571      TIP3     H2       HT       0.417000       1.00800           0
     18952 TIP3     572      TIP3     OH2      OT      -0.834000       15.9994           0
     18953 TIP3     572      TIP3     H1       HT       0.417000       1.00800           0
     18954 TIP3     572      TIP3     H2       HT       0.417000       1.00800           0
     18955 TIP3     573      TIP3     OH2      OT      -0.834000       15.9994           0
     18956 TIP3     573      TIP3     H1       HT       0.417000       1.00800           0
     18957 TIP3     573      TIP3     H2       HT       0.417000       1.00800           0
     18958 TIP3     574      TIP3     OH2      OT      -0.834000       15.9994           0
     18959 TIP3     574      TIP3     H1       HT       0.417000       1.00800           0
     18960 TIP3     574      TIP3     H2       HT       0.417000       1.00800           0
     18961 TIP3     575      TIP3     OH2      OT      -0.834000       15.9994           0
     18962 TIP3     575      TIP3     H1       HT       0.417000       1.00800           0
     18963 TIP3     575      TIP3     H2       HT       0.417000       1.00800           0
     18964 TIP3     576      TIP3     OH2      OT      -0.834000       15.9994           0
     18965 TIP3     576      TIP3     H1       HT       0.417000       1.00800           0
     18966 TIP3     576      TIP3     H2       HT       0.417000       1.00800           0
     18967 TIP3     577      TIP3     OH2      OT      -0.834000       15.9994           0
     18968 TIP3     577      TIP3     H1       HT       0.417000       1.00800           0
     18969 TIP3     577      TIP3     H2       HT       0.417000       1.00800           0
     18970 TIP3     578      TIP3     OH2      OT      -0.834000       15.9994           0
     18971 TIP3     578      TIP3     H1       HT       0.417000       1.00800           0
     18972 TIP3     578      TIP3     H2       HT       0.417000       1.00800           0
     18973 TIP3     579      TIP3     OH2      OT      -0.834000       15.9994           0
     18974 TIP3     579      TIP3     H1       HT       0.417000       1.00800           0
     18975 TIP3     579      TIP3     H2       HT       0.417000       1.00800           0
     18976 TIP3     580      TIP3     OH2      OT      -0.834000       15.9994           0
     18977 TIP3     580      TIP3     H1       HT       0.417000       1.00800           0
     18978 TIP3     580      TIP3     H2       HT       0.417000       1.00800           0
     18979 TIP3     581      TIP3     OH2      OT      -0.834000       15.9994           0
     18980 TIP3     581      TIP3     H1       HT       0.417000       1.00800           0
     18981 TIP3     581      TIP3     H2       HT       0.417000       1.00800           0
     18982 TIP3     582      TIP3     OH2      OT      -0.834000       15.9994           0
     18983 TIP3     582      TIP3     H1       HT       0.417000       1.00800           0
     18984 TIP3     582      TIP3     H2       HT       0.417000       1.00800           0
     18985 TIP3     583      TIP3     OH2      OT      -0.834000       15.9994           0
     18986 TIP3     583      TIP3     H1       HT       0.417000       1.00800           0
     18987 TIP3     583      TIP3     H2       HT       0.417000       1.00800           0
     18988 TIP3     584      TIP3     OH2      OT      -0.834000       15.9994           0
     18989 TIP3     584      TIP3     H1       HT       0.417000       1.00800           0
     18990 TIP3     584      TIP3     H2       HT       0.417000       1.00800           0
     18991 TIP3     585      TIP3     OH2      OT      -0.834000       15.9994           0
     18992 TIP3     585      TIP3     H1       HT       0.417000       1.00800           0
     18993 TIP3     585      TIP3     H2       HT       0.417000       1.00800           0
     18994 TIP3     586      TIP3     OH2      OT      -0.834000       15.9994           0
     18995 TIP3     586      TIP3     H1       HT       0.417000       1.00800           0
     18996 TIP3     586      TIP3     H2       HT       0.417000       1.00800           0
     18997 TIP3     587      TIP3     OH2      OT      -0.834000       15.9994           0
     18998 TIP3     587      TIP3     H1       HT       0.417000       1.00800           0
     18999 TIP3     587      TIP3     H2       HT       0.417000       1.00800           0
     19000 TIP3     588      TIP3     OH2      OT      -0.834000       15.9994           0
     19001 TIP3     588      TIP3     H1       HT       0.417000       1.00800           0
     19002 TIP3     588      TIP3     H2       HT       0.417000       1.00800           0
     19003 TIP3     589      TIP3     OH2      OT      -0.834000       15.9994           0
     19004 TIP3     589      TIP3     H1       HT       0.417000       1.00800           0
     19005 TIP3     589      TIP3     H2       HT       0.417000       1.00800           0
     19006 TIP3     590      TIP3     OH2      OT      -0.834000       15.9994           0
     19007 TIP3     590      TIP3     H1       HT       0.417000       1.00800           0
     19008 TIP3     590      TIP3     H2       HT       0.417000       1.00800           0
     19009 TIP3     591      TIP3     OH2      OT      -0.834000       15.9994           0
     19010 TIP3     591      TIP3     H1       HT       0.417000       1.00800           0
     19011 TIP3     591      TIP3     H2       HT       0.417000       1.00800           0
     19012 TIP3     592      TIP3     OH2      OT      -0.834000       15.9994           0
     19013 TIP3     592      TIP3     H1       HT       0.417000       1.00800           0
     19014 TIP3     592      TIP3     H2       HT       0.417000       1.00800           0
     19015 TIP3     593      TIP3     OH2      OT      -0.834000       15.9994           0
     19016 TIP3     593      TIP3     H1       HT       0.417000       1.00800           0
     19017 TIP3     593      TIP3     H2       HT       0.417000       1.00800           0
     19018 TIP3     594      TIP3     OH2      OT      -0.834000       15.9994           0
     19019 TIP3     594      TIP3     H1       HT       0.417000       1.00800           0
     19020 TIP3     594      TIP3     H2       HT       0.417000       1.00800           0
     19021 TIP3     595      TIP3     OH2      OT      -0.834000       15.9994           0
     19022 TIP3     595      TIP3     H1       HT       0.417000       1.00800           0
     19023 TIP3     595      TIP3     H2       HT       0.417000       1.00800           0
     19024 TIP3     596      TIP3     OH2      OT      -0.834000       15.9994           0
     19025 TIP3     596      TIP3     H1       HT       0.417000       1.00800           0
     19026 TIP3     596      TIP3     H2       HT       0.417000       1.00800           0
     19027 TIP3     597      TIP3     OH2      OT      -0.834000       15.9994           0
     19028 TIP3     597      TIP3     H1       HT       0.417000       1.00800           0
     19029 TIP3     597      TIP3     H2       HT       0.417000       1.00800           0
     19030 TIP3     598      TIP3     OH2      OT      -0.834000       15.9994           0
     19031 TIP3     598      TIP3     H1       HT       0.417000       1.00800           0
     19032 TIP3     598      TIP3     H2       HT       0.417000       1.00800           0
     19033 TIP3     599      TIP3     OH2      OT      -0.834000       15.9994           0
     19034 TIP3     599      TIP3     H1       HT       0.417000       1.00800           0
     19035 TIP3     599      TIP3     H2       HT       0.417000       1.00800           0
     19036 TIP3     600      TIP3     OH2      OT      -0.834000       15.9994           0
     19037 TIP3     600      TIP3     H1       HT       0.417000       1.00800           0
     19038 TIP3     600      TIP3     H2       HT       0.417000       1.00800           0
     19039 TIP3     601      TIP3     OH2      OT      -0.834000       15.9994           0
     19040 TIP3     601      TIP3     H1       HT       0.417000       1.00800           0
     19041 TIP3     601      TIP3     H2       HT       0.417000       1.00800           0
     19042 TIP3     602      TIP3     OH2      OT      -0.834000       15.9994           0
     19043 TIP3     602      TIP3     H1       HT       0.417000       1.00800           0
     19044 TIP3     602      TIP3     H2       HT       0.417000       1.00800           0
     19045 TIP3     603      TIP3     OH2      OT      -0.834000       15.9994           0
     19046 TIP3     603      TIP3     H1       HT       0.417000       1.00800           0
     19047 TIP3     603      TIP3     H2       HT       0.417000       1.00800           0
     19048 TIP3     604      TIP3     OH2      OT      -0.834000       15.9994           0
     19049 TIP3     604      TIP3     H1       HT       0.417000       1.00800           0
     19050 TIP3     604      TIP3     H2       HT       0.417000       1.00800           0
     19051 TIP3     605      TIP3     OH2      OT      -0.834000       15.9994           0
     19052 TIP3     605      TIP3     H1       HT       0.417000       1.00800           0
     19053 TIP3     605      TIP3     H2       HT       0.417000       1.00800           0
     19054 TIP3     606      TIP3     OH2      OT      -0.834000       15.9994           0
     19055 TIP3     606      TIP3     H1       HT       0.417000       1.00800           0
     19056 TIP3     606      TIP3     H2       HT       0.417000       1.00800           0
     19057 TIP3     607      TIP3     OH2      OT      -0.834000       15.9994           0
     19058 TIP3     607      TIP3     H1       HT       0.417000       1.00800           0
     19059 TIP3     607      TIP3     H2       HT       0.417000       1.00800           0
     19060 TIP3     608      TIP3     OH2      OT      -0.834000       15.9994           0
     19061 TIP3     608      TIP3     H1       HT       0.417000       1.00800           0
     19062 TIP3     608      TIP3     H2       HT       0.417000       1.00800           0
     19063 TIP3     609      TIP3     OH2      OT      -0.834000       15.9994           0
     19064 TIP3     609      TIP3     H1       HT       0.417000       1.00800           0
     19065 TIP3     609      TIP3     H2       HT       0.417000       1.00800           0
     19066 TIP3     610      TIP3     OH2      OT      -0.834000       15.9994           0
     19067 TIP3     610      TIP3     H1       HT       0.417000       1.00800           0
     19068 TIP3     610      TIP3     H2       HT       0.417000       1.00800           0
     19069 TIP3     611      TIP3     OH2      OT      -0.834000       15.9994           0
     19070 TIP3     611      TIP3     H1       HT       0.417000       1.00800           0
     19071 TIP3     611      TIP3     H2       HT       0.417000       1.00800           0
     19072 TIP3     612      TIP3     OH2      OT      -0.834000       15.9994           0
     19073 TIP3     612      TIP3     H1       HT       0.417000       1.00800           0
     19074 TIP3     612      TIP3     H2       HT       0.417000       1.00800           0
     19075 TIP3     613      TIP3     OH2      OT      -0.834000       15.9994           0
     19076 TIP3     613      TIP3     H1       HT       0.417000       1.00800           0
     19077 TIP3     613      TIP3     H2       HT       0.417000       1.00800           0
     19078 TIP3     614      TIP3     OH2      OT      -0.834000       15.9994           0
     19079 TIP3     614      TIP3     H1       HT       0.417000       1.00800           0
     19080 TIP3     614      TIP3     H2       HT       0.417000       1.00800           0
     19081 TIP3     615      TIP3     OH2      OT      -0.834000       15.9994           0
     19082 TIP3     615      TIP3     H1       HT       0.417000       1.00800           0
     19083 TIP3     615      TIP3     H2       HT       0.417000       1.00800           0
     19084 TIP3     616      TIP3     OH2      OT      -0.834000       15.9994           0
     19085 TIP3     616      TIP3     H1       HT       0.417000       1.00800           0
     19086 TIP3     616      TIP3     H2       HT       0.417000       1.00800           0
     19087 TIP3     617      TIP3     OH2      OT      -0.834000       15.9994           0
     19088 TIP3     617      TIP3     H1       HT       0.417000       1.00800           0
     19089 TIP3     617      TIP3     H2       HT       0.417000       1.00800           0
     19090 TIP3     618      TIP3     OH2      OT      -0.834000       15.9994           0
     19091 TIP3     618      TIP3     H1       HT       0.417000       1.00800           0
     19092 TIP3     618      TIP3     H2       HT       0.417000       1.00800           0
     19093 TIP3     619      TIP3     OH2      OT      -0.834000       15.9994           0
     19094 TIP3     619      TIP3     H1       HT       0.417000       1.00800           0
     19095 TIP3     619      TIP3     H2       HT       0.417000       1.00800           0
     19096 TIP3     620      TIP3     OH2      OT      -0.834000       15.9994           0
     19097 TIP3     620      TIP3     H1       HT       0.417000       1.00800           0
     19098 TIP3     620      TIP3     H2       HT       0.417000       1.00800           0
     19099 TIP3     621      TIP3     OH2      OT      -0.834000       15.9994           0
     19100 TIP3     621      TIP3     H1       HT       0.417000       1.00800           0
     19101 TIP3     621      TIP3     H2       HT       0.417000       1.00800           0
     19102 TIP3     622      TIP3     OH2      OT      -0.834000       15.9994           0
     19103 TIP3     622      TIP3     H1       HT       0.417000       1.00800           0
     19104 TIP3     622      TIP3     H2       HT       0.417000       1.00800           0
     19105 TIP3     623      TIP3     OH2      OT      -0.834000       15.9994           0
     19106 TIP3     623      TIP3     H1       HT       0.417000       1.00800           0
     19107 TIP3     623      TIP3     H2       HT       0.417000       1.00800           0
     19108 TIP3     624      TIP3     OH2      OT      -0.834000       15.9994           0
     19109 TIP3     624      TIP3     H1       HT       0.417000       1.00800           0
     19110 TIP3     624      TIP3     H2       HT       0.417000       1.00800           0
     19111 TIP3     625      TIP3     OH2      OT      -0.834000       15.9994           0
     19112 TIP3     625      TIP3     H1       HT       0.417000       1.00800           0
     19113 TIP3     625      TIP3     H2       HT       0.417000       1.00800           0
     19114 TIP3     626      TIP3     OH2      OT      -0.834000       15.9994           0
     19115 TIP3     626      TIP3     H1       HT       0.417000       1.00800           0
     19116 TIP3     626      TIP3     H2       HT       0.417000       1.00800           0
     19117 TIP3     627      TIP3     OH2      OT      -0.834000       15.9994           0
     19118 TIP3     627      TIP3     H1       HT       0.417000       1.00800           0
     19119 TIP3     627      TIP3     H2       HT       0.417000       1.00800           0
     19120 TIP3     628      TIP3     OH2      OT      -0.834000       15.9994           0
     19121 TIP3     628      TIP3     H1       HT       0.417000       1.00800           0
     19122 TIP3     628      TIP3     H2       HT       0.417000       1.00800           0
     19123 TIP3     629      TIP3     OH2      OT      -0.834000       15.9994           0
     19124 TIP3     629      TIP3     H1       HT       0.417000       1.00800           0
     19125 TIP3     629      TIP3     H2       HT       0.417000       1.00800           0
     19126 TIP3     630      TIP3     OH2      OT      -0.834000       15.9994           0
     19127 TIP3     630      TIP3     H1       HT       0.417000       1.00800           0
     19128 TIP3     630      TIP3     H2       HT       0.417000       1.00800           0
     19129 TIP3     631      TIP3     OH2      OT      -0.834000       15.9994           0
     19130 TIP3     631      TIP3     H1       HT       0.417000       1.00800           0
     19131 TIP3     631      TIP3     H2       HT       0.417000       1.00800           0
     19132 TIP3     632      TIP3     OH2      OT      -0.834000       15.9994           0
     19133 TIP3     632      TIP3     H1       HT       0.417000       1.00800           0
     19134 TIP3     632      TIP3     H2       HT       0.417000       1.00800           0
     19135 TIP3     633      TIP3     OH2      OT      -0.834000       15.9994           0
     19136 TIP3     633      TIP3     H1       HT       0.417000       1.00800           0
     19137 TIP3     633      TIP3     H2       HT       0.417000       1.00800           0
     19138 TIP3     634      TIP3     OH2      OT      -0.834000       15.9994           0
     19139 TIP3     634      TIP3     H1       HT       0.417000       1.00800           0
     19140 TIP3     634      TIP3     H2       HT       0.417000       1.00800           0
     19141 TIP3     635      TIP3     OH2      OT      -0.834000       15.9994           0
     19142 TIP3     635      TIP3     H1       HT       0.417000       1.00800           0
     19143 TIP3     635      TIP3     H2       HT       0.417000       1.00800           0
     19144 TIP3     636      TIP3     OH2      OT      -0.834000       15.9994           0
     19145 TIP3     636      TIP3     H1       HT       0.417000       1.00800           0
     19146 TIP3     636      TIP3     H2       HT       0.417000       1.00800           0
     19147 TIP3     637      TIP3     OH2      OT      -0.834000       15.9994           0
     19148 TIP3     637      TIP3     H1       HT       0.417000       1.00800           0
     19149 TIP3     637      TIP3     H2       HT       0.417000       1.00800           0
     19150 TIP3     638      TIP3     OH2      OT      -0.834000       15.9994           0
     19151 TIP3     638      TIP3     H1       HT       0.417000       1.00800           0
     19152 TIP3     638      TIP3     H2       HT       0.417000       1.00800           0
     19153 TIP3     639      TIP3     OH2      OT      -0.834000       15.9994           0
     19154 TIP3     639      TIP3     H1       HT       0.417000       1.00800           0
     19155 TIP3     639      TIP3     H2       HT       0.417000       1.00800           0
     19156 TIP3     640      TIP3     OH2      OT      -0.834000       15.9994           0
     19157 TIP3     640      TIP3     H1       HT       0.417000       1.00800           0
     19158 TIP3     640      TIP3     H2       HT       0.417000       1.00800           0
     19159 TIP3     641      TIP3     OH2      OT      -0.834000       15.9994           0
     19160 TIP3     641      TIP3     H1       HT       0.417000       1.00800           0
     19161 TIP3     641      TIP3     H2       HT       0.417000       1.00800           0
     19162 TIP3     642      TIP3     OH2      OT      -0.834000       15.9994           0
     19163 TIP3     642      TIP3     H1       HT       0.417000       1.00800           0
     19164 TIP3     642      TIP3     H2       HT       0.417000       1.00800           0
     19165 TIP3     643      TIP3     OH2      OT      -0.834000       15.9994           0
     19166 TIP3     643      TIP3     H1       HT       0.417000       1.00800           0
     19167 TIP3     643      TIP3     H2       HT       0.417000       1.00800           0
     19168 TIP3     644      TIP3     OH2      OT      -0.834000       15.9994           0
     19169 TIP3     644      TIP3     H1       HT       0.417000       1.00800           0
     19170 TIP3     644      TIP3     H2       HT       0.417000       1.00800           0
     19171 TIP3     645      TIP3     OH2      OT      -0.834000       15.9994           0
     19172 TIP3     645      TIP3     H1       HT       0.417000       1.00800           0
     19173 TIP3     645      TIP3     H2       HT       0.417000       1.00800           0
     19174 TIP3     646      TIP3     OH2      OT      -0.834000       15.9994           0
     19175 TIP3     646      TIP3     H1       HT       0.417000       1.00800           0
     19176 TIP3     646      TIP3     H2       HT       0.417000       1.00800           0
     19177 TIP3     647      TIP3     OH2      OT      -0.834000       15.9994           0
     19178 TIP3     647      TIP3     H1       HT       0.417000       1.00800           0
     19179 TIP3     647      TIP3     H2       HT       0.417000       1.00800           0
     19180 TIP3     648      TIP3     OH2      OT      -0.834000       15.9994           0
     19181 TIP3     648      TIP3     H1       HT       0.417000       1.00800           0
     19182 TIP3     648      TIP3     H2       HT       0.417000       1.00800           0
     19183 TIP3     649      TIP3     OH2      OT      -0.834000       15.9994           0
     19184 TIP3     649      TIP3     H1       HT       0.417000       1.00800           0
     19185 TIP3     649      TIP3     H2       HT       0.417000       1.00800           0
     19186 TIP3     650      TIP3     OH2      OT      -0.834000       15.9994           0
     19187 TIP3     650      TIP3     H1       HT       0.417000       1.00800           0
     19188 TIP3     650      TIP3     H2       HT       0.417000       1.00800           0
     19189 TIP3     651      TIP3     OH2      OT      -0.834000       15.9994           0
     19190 TIP3     651      TIP3     H1       HT       0.417000       1.00800           0
     19191 TIP3     651      TIP3     H2       HT       0.417000       1.00800           0
     19192 TIP3     652      TIP3     OH2      OT      -0.834000       15.9994           0
     19193 TIP3     652      TIP3     H1       HT       0.417000       1.00800           0
     19194 TIP3     652      TIP3     H2       HT       0.417000       1.00800           0
     19195 TIP3     653      TIP3     OH2      OT      -0.834000       15.9994           0
     19196 TIP3     653      TIP3     H1       HT       0.417000       1.00800           0
     19197 TIP3     653      TIP3     H2       HT       0.417000       1.00800           0
     19198 TIP3     654      TIP3     OH2      OT      -0.834000       15.9994           0
     19199 TIP3     654      TIP3     H1       HT       0.417000       1.00800           0
     19200 TIP3     654      TIP3     H2       HT       0.417000       1.00800           0
     19201 TIP3     655      TIP3     OH2      OT      -0.834000       15.9994           0
     19202 TIP3     655      TIP3     H1       HT       0.417000       1.00800           0
     19203 TIP3     655      TIP3     H2       HT       0.417000       1.00800           0
     19204 TIP3     656      TIP3     OH2      OT      -0.834000       15.9994           0
     19205 TIP3     656      TIP3     H1       HT       0.417000       1.00800           0
     19206 TIP3     656      TIP3     H2       HT       0.417000       1.00800           0
     19207 TIP3     657      TIP3     OH2      OT      -0.834000       15.9994           0
     19208 TIP3     657      TIP3     H1       HT       0.417000       1.00800           0
     19209 TIP3     657      TIP3     H2       HT       0.417000       1.00800           0
     19210 TIP3     658      TIP3     OH2      OT      -0.834000       15.9994           0
     19211 TIP3     658      TIP3     H1       HT       0.417000       1.00800           0
     19212 TIP3     658      TIP3     H2       HT       0.417000       1.00800           0
     19213 TIP3     659      TIP3     OH2      OT      -0.834000       15.9994           0
     19214 TIP3     659      TIP3     H1       HT       0.417000       1.00800           0
     19215 TIP3     659      TIP3     H2       HT       0.417000       1.00800           0
     19216 TIP3     660      TIP3     OH2      OT      -0.834000       15.9994           0
     19217 TIP3     660      TIP3     H1       HT       0.417000       1.00800           0
     19218 TIP3     660      TIP3     H2       HT       0.417000       1.00800           0
     19219 TIP3     661      TIP3     OH2      OT      -0.834000       15.9994           0
     19220 TIP3     661      TIP3     H1       HT       0.417000       1.00800           0
     19221 TIP3     661      TIP3     H2       HT       0.417000       1.00800           0
     19222 TIP3     662      TIP3     OH2      OT      -0.834000       15.9994           0
     19223 TIP3     662      TIP3     H1       HT       0.417000       1.00800           0
     19224 TIP3     662      TIP3     H2       HT       0.417000       1.00800           0
     19225 TIP3     663      TIP3     OH2      OT      -0.834000       15.9994           0
     19226 TIP3     663      TIP3     H1       HT       0.417000       1.00800           0
     19227 TIP3     663      TIP3     H2       HT       0.417000       1.00800           0
     19228 TIP3     664      TIP3     OH2      OT      -0.834000       15.9994           0
     19229 TIP3     664      TIP3     H1       HT       0.417000       1.00800           0
     19230 TIP3     664      TIP3     H2       HT       0.417000       1.00800           0
     19231 TIP3     665      TIP3     OH2      OT      -0.834000       15.9994           0
     19232 TIP3     665      TIP3     H1       HT       0.417000       1.00800           0
     19233 TIP3     665      TIP3     H2       HT       0.417000       1.00800           0
     19234 TIP3     666      TIP3     OH2      OT      -0.834000       15.9994           0
     19235 TIP3     666      TIP3     H1       HT       0.417000       1.00800           0
     19236 TIP3     666      TIP3     H2       HT       0.417000       1.00800           0
     19237 TIP3     667      TIP3     OH2      OT      -0.834000       15.9994           0
     19238 TIP3     667      TIP3     H1       HT       0.417000       1.00800           0
     19239 TIP3     667      TIP3     H2       HT       0.417000       1.00800           0
     19240 TIP3     668      TIP3     OH2      OT      -0.834000       15.9994           0
     19241 TIP3     668      TIP3     H1       HT       0.417000       1.00800           0
     19242 TIP3     668      TIP3     H2       HT       0.417000       1.00800           0
     19243 TIP3     669      TIP3     OH2      OT      -0.834000       15.9994           0
     19244 TIP3     669      TIP3     H1       HT       0.417000       1.00800           0
     19245 TIP3     669      TIP3     H2       HT       0.417000       1.00800           0
     19246 TIP3     670      TIP3     OH2      OT      -0.834000       15.9994           0
     19247 TIP3     670      TIP3     H1       HT       0.417000       1.00800           0
     19248 TIP3     670      TIP3     H2       HT       0.417000       1.00800           0
     19249 TIP3     671      TIP3     OH2      OT      -0.834000       15.9994           0
     19250 TIP3     671      TIP3     H1       HT       0.417000       1.00800           0
     19251 TIP3     671      TIP3     H2       HT       0.417000       1.00800           0
     19252 TIP3     672      TIP3     OH2      OT      -0.834000       15.9994           0
     19253 TIP3     672      TIP3     H1       HT       0.417000       1.00800           0
     19254 TIP3     672      TIP3     H2       HT       0.417000       1.00800           0
     19255 TIP3     673      TIP3     OH2      OT      -0.834000       15.9994           0
     19256 TIP3     673      TIP3     H1       HT       0.417000       1.00800           0
     19257 TIP3     673      TIP3     H2       HT       0.417000       1.00800           0
     19258 TIP3     674      TIP3     OH2      OT      -0.834000       15.9994           0
     19259 TIP3     674      TIP3     H1       HT       0.417000       1.00800           0
     19260 TIP3     674      TIP3     H2       HT       0.417000       1.00800           0
     19261 TIP3     675      TIP3     OH2      OT      -0.834000       15.9994           0
     19262 TIP3     675      TIP3     H1       HT       0.417000       1.00800           0
     19263 TIP3     675      TIP3     H2       HT       0.417000       1.00800           0
     19264 TIP3     676      TIP3     OH2      OT      -0.834000       15.9994           0
     19265 TIP3     676      TIP3     H1       HT       0.417000       1.00800           0
     19266 TIP3     676      TIP3     H2       HT       0.417000       1.00800           0
     19267 TIP3     677      TIP3     OH2      OT      -0.834000       15.9994           0
     19268 TIP3     677      TIP3     H1       HT       0.417000       1.00800           0
     19269 TIP3     677      TIP3     H2       HT       0.417000       1.00800           0
     19270 TIP3     678      TIP3     OH2      OT      -0.834000       15.9994           0
     19271 TIP3     678      TIP3     H1       HT       0.417000       1.00800           0
     19272 TIP3     678      TIP3     H2       HT       0.417000       1.00800           0
     19273 TIP3     679      TIP3     OH2      OT      -0.834000       15.9994           0
     19274 TIP3     679      TIP3     H1       HT       0.417000       1.00800           0
     19275 TIP3     679      TIP3     H2       HT       0.417000       1.00800           0
     19276 TIP3     680      TIP3     OH2      OT      -0.834000       15.9994           0
     19277 TIP3     680      TIP3     H1       HT       0.417000       1.00800           0
     19278 TIP3     680      TIP3     H2       HT       0.417000       1.00800           0
     19279 TIP3     681      TIP3     OH2      OT      -0.834000       15.9994           0
     19280 TIP3     681      TIP3     H1       HT       0.417000       1.00800           0
     19281 TIP3     681      TIP3     H2       HT       0.417000       1.00800           0
     19282 TIP3     682      TIP3     OH2      OT      -0.834000       15.9994           0
     19283 TIP3     682      TIP3     H1       HT       0.417000       1.00800           0
     19284 TIP3     682      TIP3     H2       HT       0.417000       1.00800           0
     19285 TIP3     683      TIP3     OH2      OT      -0.834000       15.9994           0
     19286 TIP3     683      TIP3     H1       HT       0.417000       1.00800           0
     19287 TIP3     683      TIP3     H2       HT       0.417000       1.00800           0
     19288 TIP3     684      TIP3     OH2      OT      -0.834000       15.9994           0
     19289 TIP3     684      TIP3     H1       HT       0.417000       1.00800           0
     19290 TIP3     684      TIP3     H2       HT       0.417000       1.00800           0
     19291 TIP3     685      TIP3     OH2      OT      -0.834000       15.9994           0
     19292 TIP3     685      TIP3     H1       HT       0.417000       1.00800           0
     19293 TIP3     685      TIP3     H2       HT       0.417000       1.00800           0
     19294 TIP3     686      TIP3     OH2      OT      -0.834000       15.9994           0
     19295 TIP3     686      TIP3     H1       HT       0.417000       1.00800           0
     19296 TIP3     686      TIP3     H2       HT       0.417000       1.00800           0
     19297 TIP3     687      TIP3     OH2      OT      -0.834000       15.9994           0
     19298 TIP3     687      TIP3     H1       HT       0.417000       1.00800           0
     19299 TIP3     687      TIP3     H2       HT       0.417000       1.00800           0
     19300 TIP3     688      TIP3     OH2      OT      -0.834000       15.9994           0
     19301 TIP3     688      TIP3     H1       HT       0.417000       1.00800           0
     19302 TIP3     688      TIP3     H2       HT       0.417000       1.00800           0
     19303 TIP3     689      TIP3     OH2      OT      -0.834000       15.9994           0
     19304 TIP3     689      TIP3     H1       HT       0.417000       1.00800           0
     19305 TIP3     689      TIP3     H2       HT       0.417000       1.00800           0
     19306 TIP3     690      TIP3     OH2      OT      -0.834000       15.9994           0
     19307 TIP3     690      TIP3     H1       HT       0.417000       1.00800           0
     19308 TIP3     690      TIP3     H2       HT       0.417000       1.00800           0
     19309 TIP3     691      TIP3     OH2      OT      -0.834000       15.9994           0
     19310 TIP3     691      TIP3     H1       HT       0.417000       1.00800           0
     19311 TIP3     691      TIP3     H2       HT       0.417000       1.00800           0
     19312 TIP3     692      TIP3     OH2      OT      -0.834000       15.9994           0
     19313 TIP3     692      TIP3     H1       HT       0.417000       1.00800           0
     19314 TIP3     692      TIP3     H2       HT       0.417000       1.00800           0
     19315 TIP3     693      TIP3     OH2      OT      -0.834000       15.9994           0
     19316 TIP3     693      TIP3     H1       HT       0.417000       1.00800           0
     19317 TIP3     693      TIP3     H2       HT       0.417000       1.00800           0
     19318 TIP3     694      TIP3     OH2      OT      -0.834000       15.9994           0
     19319 TIP3     694      TIP3     H1       HT       0.417000       1.00800           0
     19320 TIP3     694      TIP3     H2       HT       0.417000       1.00800           0
     19321 TIP3     695      TIP3     OH2      OT      -0.834000       15.9994           0
     19322 TIP3     695      TIP3     H1       HT       0.417000       1.00800           0
     19323 TIP3     695      TIP3     H2       HT       0.417000       1.00800           0
     19324 TIP3     696      TIP3     OH2      OT      -0.834000       15.9994           0
     19325 TIP3     696      TIP3     H1       HT       0.417000       1.00800           0
     19326 TIP3     696      TIP3     H2       HT       0.417000       1.00800           0
     19327 TIP3     697      TIP3     OH2      OT      -0.834000       15.9994           0
     19328 TIP3     697      TIP3     H1       HT       0.417000       1.00800           0
     19329 TIP3     697      TIP3     H2       HT       0.417000       1.00800           0
     19330 TIP3     698      TIP3     OH2      OT      -0.834000       15.9994           0
     19331 TIP3     698      TIP3     H1       HT       0.417000       1.00800           0
     19332 TIP3     698      TIP3     H2       HT       0.417000       1.00800           0
     19333 TIP3     699      TIP3     OH2      OT      -0.834000       15.9994           0
     19334 TIP3     699      TIP3     H1       HT       0.417000       1.00800           0
     19335 TIP3     699      TIP3     H2       HT       0.417000       1.00800           0
     19336 TIP3     700      TIP3     OH2      OT      -0.834000       15.9994           0
     19337 TIP3     700      TIP3     H1       HT       0.417000       1.00800           0
     19338 TIP3     700      TIP3     H2       HT       0.417000       1.00800           0
     19339 TIP3     701      TIP3     OH2      OT      -0.834000       15.9994           0
     19340 TIP3     701      TIP3     H1       HT       0.417000       1.00800           0
     19341 TIP3     701      TIP3     H2       HT       0.417000       1.00800           0
     19342 TIP3     702      TIP3     OH2      OT      -0.834000       15.9994           0
     19343 TIP3     702      TIP3     H1       HT       0.417000       1.00800           0
     19344 TIP3     702      TIP3     H2       HT       0.417000       1.00800           0
     19345 TIP3     703      TIP3     OH2      OT      -0.834000       15.9994           0
     19346 TIP3     703      TIP3     H1       HT       0.417000       1.00800           0
     19347 TIP3     703      TIP3     H2       HT       0.417000       1.00800           0
     19348 TIP3     704      TIP3     OH2      OT      -0.834000       15.9994           0
     19349 TIP3     704      TIP3     H1       HT       0.417000       1.00800           0
     19350 TIP3     704      TIP3     H2       HT       0.417000       1.00800           0
     19351 TIP3     705      TIP3     OH2      OT      -0.834000       15.9994           0
     19352 TIP3     705      TIP3     H1       HT       0.417000       1.00800           0
     19353 TIP3     705      TIP3     H2       HT       0.417000       1.00800           0
     19354 TIP3     706      TIP3     OH2      OT      -0.834000       15.9994           0
     19355 TIP3     706      TIP3     H1       HT       0.417000       1.00800           0
     19356 TIP3     706      TIP3     H2       HT       0.417000       1.00800           0
     19357 TIP3     707      TIP3     OH2      OT      -0.834000       15.9994           0
     19358 TIP3     707      TIP3     H1       HT       0.417000       1.00800           0
     19359 TIP3     707      TIP3     H2       HT       0.417000       1.00800           0
     19360 TIP3     708      TIP3     OH2      OT      -0.834000       15.9994           0
     19361 TIP3     708      TIP3     H1       HT       0.417000       1.00800           0
     19362 TIP3     708      TIP3     H2       HT       0.417000       1.00800           0
     19363 TIP3     709      TIP3     OH2      OT      -0.834000       15.9994           0
     19364 TIP3     709      TIP3     H1       HT       0.417000       1.00800           0
     19365 TIP3     709      TIP3     H2       HT       0.417000       1.00800           0
     19366 TIP3     710      TIP3     OH2      OT      -0.834000       15.9994           0
     19367 TIP3     710      TIP3     H1       HT       0.417000       1.00800           0
     19368 TIP3     710      TIP3     H2       HT       0.417000       1.00800           0
     19369 TIP3     711      TIP3     OH2      OT      -0.834000       15.9994           0
     19370 TIP3     711      TIP3     H1       HT       0.417000       1.00800           0
     19371 TIP3     711      TIP3     H2       HT       0.417000       1.00800           0
     19372 TIP3     712      TIP3     OH2      OT      -0.834000       15.9994           0
     19373 TIP3     712      TIP3     H1       HT       0.417000       1.00800           0
     19374 TIP3     712      TIP3     H2       HT       0.417000       1.00800           0
     19375 TIP3     713      TIP3     OH2      OT      -0.834000       15.9994           0
     19376 TIP3     713      TIP3     H1       HT       0.417000       1.00800           0
     19377 TIP3     713      TIP3     H2       HT       0.417000       1.00800           0
     19378 TIP3     714      TIP3     OH2      OT      -0.834000       15.9994           0
     19379 TIP3     714      TIP3     H1       HT       0.417000       1.00800           0
     19380 TIP3     714      TIP3     H2       HT       0.417000       1.00800           0
     19381 TIP3     715      TIP3     OH2      OT      -0.834000       15.9994           0
     19382 TIP3     715      TIP3     H1       HT       0.417000       1.00800           0
     19383 TIP3     715      TIP3     H2       HT       0.417000       1.00800           0
     19384 TIP3     716      TIP3     OH2      OT      -0.834000       15.9994           0
     19385 TIP3     716      TIP3     H1       HT       0.417000       1.00800           0
     19386 TIP3     716      TIP3     H2       HT       0.417000       1.00800           0
     19387 TIP3     717      TIP3     OH2      OT      -0.834000       15.9994           0
     19388 TIP3     717      TIP3     H1       HT       0.417000       1.00800           0
     19389 TIP3     717      TIP3     H2       HT       0.417000       1.00800           0
     19390 TIP3     718      TIP3     OH2      OT      -0.834000       15.9994           0
     19391 TIP3     718      TIP3     H1       HT       0.417000       1.00800           0
     19392 TIP3     718      TIP3     H2       HT       0.417000       1.00800           0
     19393 TIP3     719      TIP3     OH2      OT      -0.834000       15.9994           0
     19394 TIP3     719      TIP3     H1       HT       0.417000       1.00800           0
     19395 TIP3     719      TIP3     H2       HT       0.417000       1.00800           0
     19396 TIP3     720      TIP3     OH2      OT      -0.834000       15.9994           0
     19397 TIP3     720      TIP3     H1       HT       0.417000       1.00800           0
     19398 TIP3     720      TIP3     H2       HT       0.417000       1.00800           0
     19399 TIP3     721      TIP3     OH2      OT      -0.834000       15.9994           0
     19400 TIP3     721      TIP3     H1       HT       0.417000       1.00800           0
     19401 TIP3     721      TIP3     H2       HT       0.417000       1.00800           0
     19402 TIP3     722      TIP3     OH2      OT      -0.834000       15.9994           0
     19403 TIP3     722      TIP3     H1       HT       0.417000       1.00800           0
     19404 TIP3     722      TIP3     H2       HT       0.417000       1.00800           0
     19405 TIP3     723      TIP3     OH2      OT      -0.834000       15.9994           0
     19406 TIP3     723      TIP3     H1       HT       0.417000       1.00800           0
     19407 TIP3     723      TIP3     H2       HT       0.417000       1.00800           0
     19408 TIP3     724      TIP3     OH2      OT      -0.834000       15.9994           0
     19409 TIP3     724      TIP3     H1       HT       0.417000       1.00800           0
     19410 TIP3     724      TIP3     H2       HT       0.417000       1.00800           0
     19411 TIP3     725      TIP3     OH2      OT      -0.834000       15.9994           0
     19412 TIP3     725      TIP3     H1       HT       0.417000       1.00800           0
     19413 TIP3     725      TIP3     H2       HT       0.417000       1.00800           0
     19414 TIP3     726      TIP3     OH2      OT      -0.834000       15.9994           0
     19415 TIP3     726      TIP3     H1       HT       0.417000       1.00800           0
     19416 TIP3     726      TIP3     H2       HT       0.417000       1.00800           0
     19417 TIP3     727      TIP3     OH2      OT      -0.834000       15.9994           0
     19418 TIP3     727      TIP3     H1       HT       0.417000       1.00800           0
     19419 TIP3     727      TIP3     H2       HT       0.417000       1.00800           0
     19420 TIP3     728      TIP3     OH2      OT      -0.834000       15.9994           0
     19421 TIP3     728      TIP3     H1       HT       0.417000       1.00800           0
     19422 TIP3     728      TIP3     H2       HT       0.417000       1.00800           0
     19423 TIP3     729      TIP3     OH2      OT      -0.834000       15.9994           0
     19424 TIP3     729      TIP3     H1       HT       0.417000       1.00800           0
     19425 TIP3     729      TIP3     H2       HT       0.417000       1.00800           0
     19426 TIP3     730      TIP3     OH2      OT      -0.834000       15.9994           0
     19427 TIP3     730      TIP3     H1       HT       0.417000       1.00800           0
     19428 TIP3     730      TIP3     H2       HT       0.417000       1.00800           0
     19429 TIP3     731      TIP3     OH2      OT      -0.834000       15.9994           0
     19430 TIP3     731      TIP3     H1       HT       0.417000       1.00800           0
     19431 TIP3     731      TIP3     H2       HT       0.417000       1.00800           0
     19432 TIP3     732      TIP3     OH2      OT      -0.834000       15.9994           0
     19433 TIP3     732      TIP3     H1       HT       0.417000       1.00800           0
     19434 TIP3     732      TIP3     H2       HT       0.417000       1.00800           0
     19435 TIP3     733      TIP3     OH2      OT      -0.834000       15.9994           0
     19436 TIP3     733      TIP3     H1       HT       0.417000       1.00800           0
     19437 TIP3     733      TIP3     H2       HT       0.417000       1.00800           0
     19438 TIP3     734      TIP3     OH2      OT      -0.834000       15.9994           0
     19439 TIP3     734      TIP3     H1       HT       0.417000       1.00800           0
     19440 TIP3     734      TIP3     H2       HT       0.417000       1.00800           0
     19441 TIP3     735      TIP3     OH2      OT      -0.834000       15.9994           0
     19442 TIP3     735      TIP3     H1       HT       0.417000       1.00800           0
     19443 TIP3     735      TIP3     H2       HT       0.417000       1.00800           0
     19444 TIP3     736      TIP3     OH2      OT      -0.834000       15.9994           0
     19445 TIP3     736      TIP3     H1       HT       0.417000       1.00800           0
     19446 TIP3     736      TIP3     H2       HT       0.417000       1.00800           0
     19447 TIP3     737      TIP3     OH2      OT      -0.834000       15.9994           0
     19448 TIP3     737      TIP3     H1       HT       0.417000       1.00800           0
     19449 TIP3     737      TIP3     H2       HT       0.417000       1.00800           0
     19450 TIP3     738      TIP3     OH2      OT      -0.834000       15.9994           0
     19451 TIP3     738      TIP3     H1       HT       0.417000       1.00800           0
     19452 TIP3     738      TIP3     H2       HT       0.417000       1.00800           0
     19453 TIP3     739      TIP3     OH2      OT      -0.834000       15.9994           0
     19454 TIP3     739      TIP3     H1       HT       0.417000       1.00800           0
     19455 TIP3     739      TIP3     H2       HT       0.417000       1.00800           0
     19456 TIP3     740      TIP3     OH2      OT      -0.834000       15.9994           0
     19457 TIP3     740      TIP3     H1       HT       0.417000       1.00800           0
     19458 TIP3     740      TIP3     H2       HT       0.417000       1.00800           0
     19459 TIP3     741      TIP3     OH2      OT      -0.834000       15.9994           0
     19460 TIP3     741      TIP3     H1       HT       0.417000       1.00800           0
     19461 TIP3     741      TIP3     H2       HT       0.417000       1.00800           0
     19462 TIP3     742      TIP3     OH2      OT      -0.834000       15.9994           0
     19463 TIP3     742      TIP3     H1       HT       0.417000       1.00800           0
     19464 TIP3     742      TIP3     H2       HT       0.417000       1.00800           0
     19465 TIP3     743      TIP3     OH2      OT      -0.834000       15.9994           0
     19466 TIP3     743      TIP3     H1       HT       0.417000       1.00800           0
     19467 TIP3     743      TIP3     H2       HT       0.417000       1.00800           0
     19468 TIP3     744      TIP3     OH2      OT      -0.834000       15.9994           0
     19469 TIP3     744      TIP3     H1       HT       0.417000       1.00800           0
     19470 TIP3     744      TIP3     H2       HT       0.417000       1.00800           0
     19471 TIP3     745      TIP3     OH2      OT      -0.834000       15.9994           0
     19472 TIP3     745      TIP3     H1       HT       0.417000       1.00800           0
     19473 TIP3     745      TIP3     H2       HT       0.417000       1.00800           0
     19474 TIP3     746      TIP3     OH2      OT      -0.834000       15.9994           0
     19475 TIP3     746      TIP3     H1       HT       0.417000       1.00800           0
     19476 TIP3     746      TIP3     H2       HT       0.417000       1.00800           0
     19477 TIP3     747      TIP3     OH2      OT      -0.834000       15.9994           0
     19478 TIP3     747      TIP3     H1       HT       0.417000       1.00800           0
     19479 TIP3     747      TIP3     H2       HT       0.417000       1.00800           0
     19480 TIP3     748      TIP3     OH2      OT      -0.834000       15.9994           0
     19481 TIP3     748      TIP3     H1       HT       0.417000       1.00800           0
     19482 TIP3     748      TIP3     H2       HT       0.417000       1.00800           0
     19483 TIP3     749      TIP3     OH2      OT      -0.834000       15.9994           0
     19484 TIP3     749      TIP3     H1       HT       0.417000       1.00800           0
     19485 TIP3     749      TIP3     H2       HT       0.417000       1.00800           0
     19486 TIP3     750      TIP3     OH2      OT      -0.834000       15.9994           0
     19487 TIP3     750      TIP3     H1       HT       0.417000       1.00800           0
     19488 TIP3     750      TIP3     H2       HT       0.417000       1.00800           0
     19489 TIP3     751      TIP3     OH2      OT      -0.834000       15.9994           0
     19490 TIP3     751      TIP3     H1       HT       0.417000       1.00800           0
     19491 TIP3     751      TIP3     H2       HT       0.417000       1.00800           0
     19492 TIP3     752      TIP3     OH2      OT      -0.834000       15.9994           0
     19493 TIP3     752      TIP3     H1       HT       0.417000       1.00800           0
     19494 TIP3     752      TIP3     H2       HT       0.417000       1.00800           0
     19495 TIP3     753      TIP3     OH2      OT      -0.834000       15.9994           0
     19496 TIP3     753      TIP3     H1       HT       0.417000       1.00800           0
     19497 TIP3     753      TIP3     H2       HT       0.417000       1.00800           0
     19498 TIP3     754      TIP3     OH2      OT      -0.834000       15.9994           0
     19499 TIP3     754      TIP3     H1       HT       0.417000       1.00800           0
     19500 TIP3     754      TIP3     H2       HT       0.417000       1.00800           0
     19501 TIP3     755      TIP3     OH2      OT      -0.834000       15.9994           0
     19502 TIP3     755      TIP3     H1       HT       0.417000       1.00800           0
     19503 TIP3     755      TIP3     H2       HT       0.417000       1.00800           0
     19504 TIP3     756      TIP3     OH2      OT      -0.834000       15.9994           0
     19505 TIP3     756      TIP3     H1       HT       0.417000       1.00800           0
     19506 TIP3     756      TIP3     H2       HT       0.417000       1.00800           0
     19507 TIP3     757      TIP3     OH2      OT      -0.834000       15.9994           0
     19508 TIP3     757      TIP3     H1       HT       0.417000       1.00800           0
     19509 TIP3     757      TIP3     H2       HT       0.417000       1.00800           0
     19510 TIP3     758      TIP3     OH2      OT      -0.834000       15.9994           0
     19511 TIP3     758      TIP3     H1       HT       0.417000       1.00800           0
     19512 TIP3     758      TIP3     H2       HT       0.417000       1.00800           0
     19513 TIP3     759      TIP3     OH2      OT      -0.834000       15.9994           0
     19514 TIP3     759      TIP3     H1       HT       0.417000       1.00800           0
     19515 TIP3     759      TIP3     H2       HT       0.417000       1.00800           0
     19516 TIP3     760      TIP3     OH2      OT      -0.834000       15.9994           0
     19517 TIP3     760      TIP3     H1       HT       0.417000       1.00800           0
     19518 TIP3     760      TIP3     H2       HT       0.417000       1.00800           0
     19519 TIP3     761      TIP3     OH2      OT      -0.834000       15.9994           0
     19520 TIP3     761      TIP3     H1       HT       0.417000       1.00800           0
     19521 TIP3     761      TIP3     H2       HT       0.417000       1.00800           0
     19522 TIP3     762      TIP3     OH2      OT      -0.834000       15.9994           0
     19523 TIP3     762      TIP3     H1       HT       0.417000       1.00800           0
     19524 TIP3     762      TIP3     H2       HT       0.417000       1.00800           0
     19525 TIP3     763      TIP3     OH2      OT      -0.834000       15.9994           0
     19526 TIP3     763      TIP3     H1       HT       0.417000       1.00800           0
     19527 TIP3     763      TIP3     H2       HT       0.417000       1.00800           0
     19528 TIP3     764      TIP3     OH2      OT      -0.834000       15.9994           0
     19529 TIP3     764      TIP3     H1       HT       0.417000       1.00800           0
     19530 TIP3     764      TIP3     H2       HT       0.417000       1.00800           0
     19531 TIP3     765      TIP3     OH2      OT      -0.834000       15.9994           0
     19532 TIP3     765      TIP3     H1       HT       0.417000       1.00800           0
     19533 TIP3     765      TIP3     H2       HT       0.417000       1.00800           0
     19534 TIP3     766      TIP3     OH2      OT      -0.834000       15.9994           0
     19535 TIP3     766      TIP3     H1       HT       0.417000       1.00800           0
     19536 TIP3     766      TIP3     H2       HT       0.417000       1.00800           0
     19537 TIP3     767      TIP3     OH2      OT      -0.834000       15.9994           0
     19538 TIP3     767      TIP3     H1       HT       0.417000       1.00800           0
     19539 TIP3     767      TIP3     H2       HT       0.417000       1.00800           0
     19540 TIP3     768      TIP3     OH2      OT      -0.834000       15.9994           0
     19541 TIP3     768      TIP3     H1       HT       0.417000       1.00800           0
     19542 TIP3     768      TIP3     H2       HT       0.417000       1.00800           0
     19543 TIP3     769      TIP3     OH2      OT      -0.834000       15.9994           0
     19544 TIP3     769      TIP3     H1       HT       0.417000       1.00800           0
     19545 TIP3     769      TIP3     H2       HT       0.417000       1.00800           0
     19546 TIP3     770      TIP3     OH2      OT      -0.834000       15.9994           0
     19547 TIP3     770      TIP3     H1       HT       0.417000       1.00800           0
     19548 TIP3     770      TIP3     H2       HT       0.417000       1.00800           0
     19549 TIP3     771      TIP3     OH2      OT      -0.834000       15.9994           0
     19550 TIP3     771      TIP3     H1       HT       0.417000       1.00800           0
     19551 TIP3     771      TIP3     H2       HT       0.417000       1.00800           0
     19552 TIP3     772      TIP3     OH2      OT      -0.834000       15.9994           0
     19553 TIP3     772      TIP3     H1       HT       0.417000       1.00800           0
     19554 TIP3     772      TIP3     H2       HT       0.417000       1.00800           0
     19555 TIP3     773      TIP3     OH2      OT      -0.834000       15.9994           0
     19556 TIP3     773      TIP3     H1       HT       0.417000       1.00800           0
     19557 TIP3     773      TIP3     H2       HT       0.417000       1.00800           0
     19558 TIP3     774      TIP3     OH2      OT      -0.834000       15.9994           0
     19559 TIP3     774      TIP3     H1       HT       0.417000       1.00800           0
     19560 TIP3     774      TIP3     H2       HT       0.417000       1.00800           0
     19561 TIP3     775      TIP3     OH2      OT      -0.834000       15.9994           0
     19562 TIP3     775      TIP3     H1       HT       0.417000       1.00800           0
     19563 TIP3     775      TIP3     H2       HT       0.417000       1.00800           0
     19564 TIP3     776      TIP3     OH2      OT      -0.834000       15.9994           0
     19565 TIP3     776      TIP3     H1       HT       0.417000       1.00800           0
     19566 TIP3     776      TIP3     H2       HT       0.417000       1.00800           0
     19567 TIP3     777      TIP3     OH2      OT      -0.834000       15.9994           0
     19568 TIP3     777      TIP3     H1       HT       0.417000       1.00800           0
     19569 TIP3     777      TIP3     H2       HT       0.417000       1.00800           0
     19570 TIP3     778      TIP3     OH2      OT      -0.834000       15.9994           0
     19571 TIP3     778      TIP3     H1       HT       0.417000       1.00800           0
     19572 TIP3     778      TIP3     H2       HT       0.417000       1.00800           0
     19573 TIP3     779      TIP3     OH2      OT      -0.834000       15.9994           0
     19574 TIP3     779      TIP3     H1       HT       0.417000       1.00800           0
     19575 TIP3     779      TIP3     H2       HT       0.417000       1.00800           0
     19576 TIP3     780      TIP3     OH2      OT      -0.834000       15.9994           0
     19577 TIP3     780      TIP3     H1       HT       0.417000       1.00800           0
     19578 TIP3     780      TIP3     H2       HT       0.417000       1.00800           0
     19579 TIP3     781      TIP3     OH2      OT      -0.834000       15.9994           0
     19580 TIP3     781      TIP3     H1       HT       0.417000       1.00800           0
     19581 TIP3     781      TIP3     H2       HT       0.417000       1.00800           0
     19582 TIP3     782      TIP3     OH2      OT      -0.834000       15.9994           0
     19583 TIP3     782      TIP3     H1       HT       0.417000       1.00800           0
     19584 TIP3     782      TIP3     H2       HT       0.417000       1.00800           0
     19585 TIP3     783      TIP3     OH2      OT      -0.834000       15.9994           0
     19586 TIP3     783      TIP3     H1       HT       0.417000       1.00800           0
     19587 TIP3     783      TIP3     H2       HT       0.417000       1.00800           0
     19588 TIP3     784      TIP3     OH2      OT      -0.834000       15.9994           0
     19589 TIP3     784      TIP3     H1       HT       0.417000       1.00800           0
     19590 TIP3     784      TIP3     H2       HT       0.417000       1.00800           0
     19591 TIP3     785      TIP3     OH2      OT      -0.834000       15.9994           0
     19592 TIP3     785      TIP3     H1       HT       0.417000       1.00800           0
     19593 TIP3     785      TIP3     H2       HT       0.417000       1.00800           0
     19594 TIP3     786      TIP3     OH2      OT      -0.834000       15.9994           0
     19595 TIP3     786      TIP3     H1       HT       0.417000       1.00800           0
     19596 TIP3     786      TIP3     H2       HT       0.417000       1.00800           0
     19597 TIP3     787      TIP3     OH2      OT      -0.834000       15.9994           0
     19598 TIP3     787      TIP3     H1       HT       0.417000       1.00800           0
     19599 TIP3     787      TIP3     H2       HT       0.417000       1.00800           0
     19600 TIP3     788      TIP3     OH2      OT      -0.834000       15.9994           0
     19601 TIP3     788      TIP3     H1       HT       0.417000       1.00800           0
     19602 TIP3     788      TIP3     H2       HT       0.417000       1.00800           0
     19603 TIP3     789      TIP3     OH2      OT      -0.834000       15.9994           0
     19604 TIP3     789      TIP3     H1       HT       0.417000       1.00800           0
     19605 TIP3     789      TIP3     H2       HT       0.417000       1.00800           0
     19606 TIP3     790      TIP3     OH2      OT      -0.834000       15.9994           0
     19607 TIP3     790      TIP3     H1       HT       0.417000       1.00800           0
     19608 TIP3     790      TIP3     H2       HT       0.417000       1.00800           0
     19609 TIP3     791      TIP3     OH2      OT      -0.834000       15.9994           0
     19610 TIP3     791      TIP3     H1       HT       0.417000       1.00800           0
     19611 TIP3     791      TIP3     H2       HT       0.417000       1.00800           0
     19612 TIP3     792      TIP3     OH2      OT      -0.834000       15.9994           0
     19613 TIP3     792      TIP3     H1       HT       0.417000       1.00800           0
     19614 TIP3     792      TIP3     H2       HT       0.417000       1.00800           0
     19615 TIP3     793      TIP3     OH2      OT      -0.834000       15.9994           0
     19616 TIP3     793      TIP3     H1       HT       0.417000       1.00800           0
     19617 TIP3     793      TIP3     H2       HT       0.417000       1.00800           0
     19618 TIP3     794      TIP3     OH2      OT      -0.834000       15.9994           0
     19619 TIP3     794      TIP3     H1       HT       0.417000       1.00800           0
     19620 TIP3     794      TIP3     H2       HT       0.417000       1.00800           0
     19621 TIP3     795      TIP3     OH2      OT      -0.834000       15.9994           0
     19622 TIP3     795      TIP3     H1       HT       0.417000       1.00800           0
     19623 TIP3     795      TIP3     H2       HT       0.417000       1.00800           0
     19624 TIP3     796      TIP3     OH2      OT      -0.834000       15.9994           0
     19625 TIP3     796      TIP3     H1       HT       0.417000       1.00800           0
     19626 TIP3     796      TIP3     H2       HT       0.417000       1.00800           0
     19627 TIP3     797      TIP3     OH2      OT      -0.834000       15.9994           0
     19628 TIP3     797      TIP3     H1       HT       0.417000       1.00800           0
     19629 TIP3     797      TIP3     H2       HT       0.417000       1.00800           0
     19630 TIP3     798      TIP3     OH2      OT      -0.834000       15.9994           0
     19631 TIP3     798      TIP3     H1       HT       0.417000       1.00800           0
     19632 TIP3     798      TIP3     H2       HT       0.417000       1.00800           0
     19633 TIP3     799      TIP3     OH2      OT      -0.834000       15.9994           0
     19634 TIP3     799      TIP3     H1       HT       0.417000       1.00800           0
     19635 TIP3     799      TIP3     H2       HT       0.417000       1.00800           0
     19636 TIP3     800      TIP3     OH2      OT      -0.834000       15.9994           0
     19637 TIP3     800      TIP3     H1       HT       0.417000       1.00800           0
     19638 TIP3     800      TIP3     H2       HT       0.417000       1.00800           0
     19639 TIP3     801      TIP3     OH2      OT      -0.834000       15.9994           0
     19640 TIP3     801      TIP3     H1       HT       0.417000       1.00800           0
     19641 TIP3     801      TIP3     H2       HT       0.417000       1.00800           0
     19642 TIP3     802      TIP3     OH2      OT      -0.834000       15.9994           0
     19643 TIP3     802      TIP3     H1       HT       0.417000       1.00800           0
     19644 TIP3     802      TIP3     H2       HT       0.417000       1.00800           0
     19645 TIP3     803      TIP3     OH2      OT      -0.834000       15.9994           0
     19646 TIP3     803      TIP3     H1       HT       0.417000       1.00800           0
     19647 TIP3     803      TIP3     H2       HT       0.417000       1.00800           0
     19648 TIP3     804      TIP3     OH2      OT      -0.834000       15.9994           0
     19649 TIP3     804      TIP3     H1       HT       0.417000       1.00800           0
     19650 TIP3     804      TIP3     H2       HT       0.417000       1.00800           0
     19651 TIP3     805      TIP3     OH2      OT      -0.834000       15.9994           0
     19652 TIP3     805      TIP3     H1       HT       0.417000       1.00800           0
     19653 TIP3     805      TIP3     H2       HT       0.417000       1.00800           0
     19654 TIP3     806      TIP3     OH2      OT      -0.834000       15.9994           0
     19655 TIP3     806      TIP3     H1       HT       0.417000       1.00800           0
     19656 TIP3     806      TIP3     H2       HT       0.417000       1.00800           0
     19657 TIP3     807      TIP3     OH2      OT      -0.834000       15.9994           0
     19658 TIP3     807      TIP3     H1       HT       0.417000       1.00800           0
     19659 TIP3     807      TIP3     H2       HT       0.417000       1.00800           0
     19660 TIP3     808      TIP3     OH2      OT      -0.834000       15.9994           0
     19661 TIP3     808      TIP3     H1       HT       0.417000       1.00800           0
     19662 TIP3     808      TIP3     H2       HT       0.417000       1.00800           0
     19663 TIP3     809      TIP3     OH2      OT      -0.834000       15.9994           0
     19664 TIP3     809      TIP3     H1       HT       0.417000       1.00800           0
     19665 TIP3     809      TIP3     H2       HT       0.417000       1.00800           0
     19666 TIP3     810      TIP3     OH2      OT      -0.834000       15.9994           0
     19667 TIP3     810      TIP3     H1       HT       0.417000       1.00800           0
     19668 TIP3     810      TIP3     H2       HT       0.417000       1.00800           0
     19669 TIP3     811      TIP3     OH2      OT      -0.834000       15.9994           0
     19670 TIP3     811      TIP3     H1       HT       0.417000       1.00800           0
     19671 TIP3     811      TIP3     H2       HT       0.417000       1.00800           0
     19672 TIP3     812      TIP3     OH2      OT      -0.834000       15.9994           0
     19673 TIP3     812      TIP3     H1       HT       0.417000       1.00800           0
     19674 TIP3     812      TIP3     H2       HT       0.417000       1.00800           0
     19675 TIP3     813      TIP3     OH2      OT      -0.834000       15.9994           0
     19676 TIP3     813      TIP3     H1       HT       0.417000       1.00800           0
     19677 TIP3     813      TIP3     H2       HT       0.417000       1.00800           0
     19678 TIP3     814      TIP3     OH2      OT      -0.834000       15.9994           0
     19679 TIP3     814      TIP3     H1       HT       0.417000       1.00800           0
     19680 TIP3     814      TIP3     H2       HT       0.417000       1.00800           0
     19681 TIP3     815      TIP3     OH2      OT      -0.834000       15.9994           0
     19682 TIP3     815      TIP3     H1       HT       0.417000       1.00800           0
     19683 TIP3     815      TIP3     H2       HT       0.417000       1.00800           0
     19684 TIP3     816      TIP3     OH2      OT      -0.834000       15.9994           0
     19685 TIP3     816      TIP3     H1       HT       0.417000       1.00800           0
     19686 TIP3     816      TIP3     H2       HT       0.417000       1.00800           0
     19687 TIP3     817      TIP3     OH2      OT      -0.834000       15.9994           0
     19688 TIP3     817      TIP3     H1       HT       0.417000       1.00800           0
     19689 TIP3     817      TIP3     H2       HT       0.417000       1.00800           0
     19690 TIP3     818      TIP3     OH2      OT      -0.834000       15.9994           0
     19691 TIP3     818      TIP3     H1       HT       0.417000       1.00800           0
     19692 TIP3     818      TIP3     H2       HT       0.417000       1.00800           0
     19693 TIP3     819      TIP3     OH2      OT      -0.834000       15.9994           0
     19694 TIP3     819      TIP3     H1       HT       0.417000       1.00800           0
     19695 TIP3     819      TIP3     H2       HT       0.417000       1.00800           0
     19696 TIP3     820      TIP3     OH2      OT      -0.834000       15.9994           0
     19697 TIP3     820      TIP3     H1       HT       0.417000       1.00800           0
     19698 TIP3     820      TIP3     H2       HT       0.417000       1.00800           0
     19699 TIP3     821      TIP3     OH2      OT      -0.834000       15.9994           0
     19700 TIP3     821      TIP3     H1       HT       0.417000       1.00800           0
     19701 TIP3     821      TIP3     H2       HT       0.417000       1.00800           0
     19702 TIP3     822      TIP3     OH2      OT      -0.834000       15.9994           0
     19703 TIP3     822      TIP3     H1       HT       0.417000       1.00800           0
     19704 TIP3     822      TIP3     H2       HT       0.417000       1.00800           0
     19705 TIP3     823      TIP3     OH2      OT      -0.834000       15.9994           0
     19706 TIP3     823      TIP3     H1       HT       0.417000       1.00800           0
     19707 TIP3     823      TIP3     H2       HT       0.417000       1.00800           0
     19708 TIP3     824      TIP3     OH2      OT      -0.834000       15.9994           0
     19709 TIP3     824      TIP3     H1       HT       0.417000       1.00800           0
     19710 TIP3     824      TIP3     H2       HT       0.417000       1.00800           0
     19711 TIP3     825      TIP3     OH2      OT      -0.834000       15.9994           0
     19712 TIP3     825      TIP3     H1       HT       0.417000       1.00800           0
     19713 TIP3     825      TIP3     H2       HT       0.417000       1.00800           0
     19714 TIP3     826      TIP3     OH2      OT      -0.834000       15.9994           0
     19715 TIP3     826      TIP3     H1       HT       0.417000       1.00800           0
     19716 TIP3     826      TIP3     H2       HT       0.417000       1.00800           0
     19717 TIP3     827      TIP3     OH2      OT      -0.834000       15.9994           0
     19718 TIP3     827      TIP3     H1       HT       0.417000       1.00800           0
     19719 TIP3     827      TIP3     H2       HT       0.417000       1.00800           0
     19720 TIP3     828      TIP3     OH2      OT      -0.834000       15.9994           0
     19721 TIP3     828      TIP3     H1       HT       0.417000       1.00800           0
     19722 TIP3     828      TIP3     H2       HT       0.417000       1.00800           0
     19723 TIP3     829      TIP3     OH2      OT      -0.834000       15.9994           0
     19724 TIP3     829      TIP3     H1       HT       0.417000       1.00800           0
     19725 TIP3     829      TIP3     H2       HT       0.417000       1.00800           0
     19726 TIP3     830      TIP3     OH2      OT      -0.834000       15.9994           0
     19727 TIP3     830      TIP3     H1       HT       0.417000       1.00800           0
     19728 TIP3     830      TIP3     H2       HT       0.417000       1.00800           0
     19729 TIP3     831      TIP3     OH2      OT      -0.834000       15.9994           0
     19730 TIP3     831      TIP3     H1       HT       0.417000       1.00800           0
     19731 TIP3     831      TIP3     H2       HT       0.417000       1.00800           0
     19732 TIP3     832      TIP3     OH2      OT      -0.834000       15.9994           0
     19733 TIP3     832      TIP3     H1       HT       0.417000       1.00800           0
     19734 TIP3     832      TIP3     H2       HT       0.417000       1.00800           0
     19735 TIP3     833      TIP3     OH2      OT      -0.834000       15.9994           0
     19736 TIP3     833      TIP3     H1       HT       0.417000       1.00800           0
     19737 TIP3     833      TIP3     H2       HT       0.417000       1.00800           0
     19738 TIP3     834      TIP3     OH2      OT      -0.834000       15.9994           0
     19739 TIP3     834      TIP3     H1       HT       0.417000       1.00800           0
     19740 TIP3     834      TIP3     H2       HT       0.417000       1.00800           0
     19741 TIP3     835      TIP3     OH2      OT      -0.834000       15.9994           0
     19742 TIP3     835      TIP3     H1       HT       0.417000       1.00800           0
     19743 TIP3     835      TIP3     H2       HT       0.417000       1.00800           0
     19744 TIP3     836      TIP3     OH2      OT      -0.834000       15.9994           0
     19745 TIP3     836      TIP3     H1       HT       0.417000       1.00800           0
     19746 TIP3     836      TIP3     H2       HT       0.417000       1.00800           0
     19747 TIP3     837      TIP3     OH2      OT      -0.834000       15.9994           0
     19748 TIP3     837      TIP3     H1       HT       0.417000       1.00800           0
     19749 TIP3     837      TIP3     H2       HT       0.417000       1.00800           0
     19750 TIP3     838      TIP3     OH2      OT      -0.834000       15.9994           0
     19751 TIP3     838      TIP3     H1       HT       0.417000       1.00800           0
     19752 TIP3     838      TIP3     H2       HT       0.417000       1.00800           0
     19753 TIP3     839      TIP3     OH2      OT      -0.834000       15.9994           0
     19754 TIP3     839      TIP3     H1       HT       0.417000       1.00800           0
     19755 TIP3     839      TIP3     H2       HT       0.417000       1.00800           0
     19756 TIP3     840      TIP3     OH2      OT      -0.834000       15.9994           0
     19757 TIP3     840      TIP3     H1       HT       0.417000       1.00800           0
     19758 TIP3     840      TIP3     H2       HT       0.417000       1.00800           0
     19759 TIP3     841      TIP3     OH2      OT      -0.834000       15.9994           0
     19760 TIP3     841      TIP3     H1       HT       0.417000       1.00800           0
     19761 TIP3     841      TIP3     H2       HT       0.417000       1.00800           0
     19762 TIP3     842      TIP3     OH2      OT      -0.834000       15.9994           0
     19763 TIP3     842      TIP3     H1       HT       0.417000       1.00800           0
     19764 TIP3     842      TIP3     H2       HT       0.417000       1.00800           0
     19765 TIP3     843      TIP3     OH2      OT      -0.834000       15.9994           0
     19766 TIP3     843      TIP3     H1       HT       0.417000       1.00800           0
     19767 TIP3     843      TIP3     H2       HT       0.417000       1.00800           0
     19768 TIP3     844      TIP3     OH2      OT      -0.834000       15.9994           0
     19769 TIP3     844      TIP3     H1       HT       0.417000       1.00800           0
     19770 TIP3     844      TIP3     H2       HT       0.417000       1.00800           0
     19771 TIP3     845      TIP3     OH2      OT      -0.834000       15.9994           0
     19772 TIP3     845      TIP3     H1       HT       0.417000       1.00800           0
     19773 TIP3     845      TIP3     H2       HT       0.417000       1.00800           0
     19774 TIP3     846      TIP3     OH2      OT      -0.834000       15.9994           0
     19775 TIP3     846      TIP3     H1       HT       0.417000       1.00800           0
     19776 TIP3     846      TIP3     H2       HT       0.417000       1.00800           0
     19777 TIP3     847      TIP3     OH2      OT      -0.834000       15.9994           0
     19778 TIP3     847      TIP3     H1       HT       0.417000       1.00800           0
     19779 TIP3     847      TIP3     H2       HT       0.417000       1.00800           0
     19780 TIP3     848      TIP3     OH2      OT      -0.834000       15.9994           0
     19781 TIP3     848      TIP3     H1       HT       0.417000       1.00800           0
     19782 TIP3     848      TIP3     H2       HT       0.417000       1.00800           0
     19783 TIP3     849      TIP3     OH2      OT      -0.834000       15.9994           0
     19784 TIP3     849      TIP3     H1       HT       0.417000       1.00800           0
     19785 TIP3     849      TIP3     H2       HT       0.417000       1.00800           0
     19786 TIP3     850      TIP3     OH2      OT      -0.834000       15.9994           0
     19787 TIP3     850      TIP3     H1       HT       0.417000       1.00800           0
     19788 TIP3     850      TIP3     H2       HT       0.417000       1.00800           0
     19789 TIP3     851      TIP3     OH2      OT      -0.834000       15.9994           0
     19790 TIP3     851      TIP3     H1       HT       0.417000       1.00800           0
     19791 TIP3     851      TIP3     H2       HT       0.417000       1.00800           0
     19792 TIP3     852      TIP3     OH2      OT      -0.834000       15.9994           0
     19793 TIP3     852      TIP3     H1       HT       0.417000       1.00800           0
     19794 TIP3     852      TIP3     H2       HT       0.417000       1.00800           0
     19795 TIP3     853      TIP3     OH2      OT      -0.834000       15.9994           0
     19796 TIP3     853      TIP3     H1       HT       0.417000       1.00800           0
     19797 TIP3     853      TIP3     H2       HT       0.417000       1.00800           0
     19798 TIP3     854      TIP3     OH2      OT      -0.834000       15.9994           0
     19799 TIP3     854      TIP3     H1       HT       0.417000       1.00800           0
     19800 TIP3     854      TIP3     H2       HT       0.417000       1.00800           0
     19801 TIP3     855      TIP3     OH2      OT      -0.834000       15.9994           0
     19802 TIP3     855      TIP3     H1       HT       0.417000       1.00800           0
     19803 TIP3     855      TIP3     H2       HT       0.417000       1.00800           0
     19804 TIP3     856      TIP3     OH2      OT      -0.834000       15.9994           0
     19805 TIP3     856      TIP3     H1       HT       0.417000       1.00800           0
     19806 TIP3     856      TIP3     H2       HT       0.417000       1.00800           0
     19807 TIP3     857      TIP3     OH2      OT      -0.834000       15.9994           0
     19808 TIP3     857      TIP3     H1       HT       0.417000       1.00800           0
     19809 TIP3     857      TIP3     H2       HT       0.417000       1.00800           0
     19810 TIP3     858      TIP3     OH2      OT      -0.834000       15.9994           0
     19811 TIP3     858      TIP3     H1       HT       0.417000       1.00800           0
     19812 TIP3     858      TIP3     H2       HT       0.417000       1.00800           0
     19813 TIP3     859      TIP3     OH2      OT      -0.834000       15.9994           0
     19814 TIP3     859      TIP3     H1       HT       0.417000       1.00800           0
     19815 TIP3     859      TIP3     H2       HT       0.417000       1.00800           0
     19816 TIP3     860      TIP3     OH2      OT      -0.834000       15.9994           0
     19817 TIP3     860      TIP3     H1       HT       0.417000       1.00800           0
     19818 TIP3     860      TIP3     H2       HT       0.417000       1.00800           0
     19819 TIP3     861      TIP3     OH2      OT      -0.834000       15.9994           0
     19820 TIP3     861      TIP3     H1       HT       0.417000       1.00800           0
     19821 TIP3     861      TIP3     H2       HT       0.417000       1.00800           0
     19822 TIP3     862      TIP3     OH2      OT      -0.834000       15.9994           0
     19823 TIP3     862      TIP3     H1       HT       0.417000       1.00800           0
     19824 TIP3     862      TIP3     H2       HT       0.417000       1.00800           0
     19825 TIP3     863      TIP3     OH2      OT      -0.834000       15.9994           0
     19826 TIP3     863      TIP3     H1       HT       0.417000       1.00800           0
     19827 TIP3     863      TIP3     H2       HT       0.417000       1.00800           0
     19828 TIP3     864      TIP3     OH2      OT      -0.834000       15.9994           0
     19829 TIP3     864      TIP3     H1       HT       0.417000       1.00800           0
     19830 TIP3     864      TIP3     H2       HT       0.417000       1.00800           0
     19831 TIP3     865      TIP3     OH2      OT      -0.834000       15.9994           0
     19832 TIP3     865      TIP3     H1       HT       0.417000       1.00800           0
     19833 TIP3     865      TIP3     H2       HT       0.417000       1.00800           0
     19834 TIP3     866      TIP3     OH2      OT      -0.834000       15.9994           0
     19835 TIP3     866      TIP3     H1       HT       0.417000       1.00800           0
     19836 TIP3     866      TIP3     H2       HT       0.417000       1.00800           0
     19837 TIP3     867      TIP3     OH2      OT      -0.834000       15.9994           0
     19838 TIP3     867      TIP3     H1       HT       0.417000       1.00800           0
     19839 TIP3     867      TIP3     H2       HT       0.417000       1.00800           0
     19840 TIP3     868      TIP3     OH2      OT      -0.834000       15.9994           0
     19841 TIP3     868      TIP3     H1       HT       0.417000       1.00800           0
     19842 TIP3     868      TIP3     H2       HT       0.417000       1.00800           0
     19843 TIP3     869      TIP3     OH2      OT      -0.834000       15.9994           0
     19844 TIP3     869      TIP3     H1       HT       0.417000       1.00800           0
     19845 TIP3     869      TIP3     H2       HT       0.417000       1.00800           0
     19846 TIP3     870      TIP3     OH2      OT      -0.834000       15.9994           0
     19847 TIP3     870      TIP3     H1       HT       0.417000       1.00800           0
     19848 TIP3     870      TIP3     H2       HT       0.417000       1.00800           0
     19849 TIP3     871      TIP3     OH2      OT      -0.834000       15.9994           0
     19850 TIP3     871      TIP3     H1       HT       0.417000       1.00800           0
     19851 TIP3     871      TIP3     H2       HT       0.417000       1.00800           0
     19852 TIP3     872      TIP3     OH2      OT      -0.834000       15.9994           0
     19853 TIP3     872      TIP3     H1       HT       0.417000       1.00800           0
     19854 TIP3     872      TIP3     H2       HT       0.417000       1.00800           0
     19855 TIP3     873      TIP3     OH2      OT      -0.834000       15.9994           0
     19856 TIP3     873      TIP3     H1       HT       0.417000       1.00800           0
     19857 TIP3     873      TIP3     H2       HT       0.417000       1.00800           0
     19858 TIP3     874      TIP3     OH2      OT      -0.834000       15.9994           0
     19859 TIP3     874      TIP3     H1       HT       0.417000       1.00800           0
     19860 TIP3     874      TIP3     H2       HT       0.417000       1.00800           0
     19861 TIP3     875      TIP3     OH2      OT      -0.834000       15.9994           0
     19862 TIP3     875      TIP3     H1       HT       0.417000       1.00800           0
     19863 TIP3     875      TIP3     H2       HT       0.417000       1.00800           0
     19864 TIP3     876      TIP3     OH2      OT      -0.834000       15.9994           0
     19865 TIP3     876      TIP3     H1       HT       0.417000       1.00800           0
     19866 TIP3     876      TIP3     H2       HT       0.417000       1.00800           0
     19867 TIP3     877      TIP3     OH2      OT      -0.834000       15.9994           0
     19868 TIP3     877      TIP3     H1       HT       0.417000       1.00800           0
     19869 TIP3     877      TIP3     H2       HT       0.417000       1.00800           0
     19870 TIP3     878      TIP3     OH2      OT      -0.834000       15.9994           0
     19871 TIP3     878      TIP3     H1       HT       0.417000       1.00800           0
     19872 TIP3     878      TIP3     H2       HT       0.417000       1.00800           0
     19873 TIP3     879      TIP3     OH2      OT      -0.834000       15.9994           0
     19874 TIP3     879      TIP3     H1       HT       0.417000       1.00800           0
     19875 TIP3     879      TIP3     H2       HT       0.417000       1.00800           0
     19876 TIP3     880      TIP3     OH2      OT      -0.834000       15.9994           0
     19877 TIP3     880      TIP3     H1       HT       0.417000       1.00800           0
     19878 TIP3     880      TIP3     H2       HT       0.417000       1.00800           0
     19879 TIP3     881      TIP3     OH2      OT      -0.834000       15.9994           0
     19880 TIP3     881      TIP3     H1       HT       0.417000       1.00800           0
     19881 TIP3     881      TIP3     H2       HT       0.417000       1.00800           0
     19882 TIP3     882      TIP3     OH2      OT      -0.834000       15.9994           0
     19883 TIP3     882      TIP3     H1       HT       0.417000       1.00800           0
     19884 TIP3     882      TIP3     H2       HT       0.417000       1.00800           0
     19885 TIP3     883      TIP3     OH2      OT      -0.834000       15.9994           0
     19886 TIP3     883      TIP3     H1       HT       0.417000       1.00800           0
     19887 TIP3     883      TIP3     H2       HT       0.417000       1.00800           0
     19888 TIP3     884      TIP3     OH2      OT      -0.834000       15.9994           0
     19889 TIP3     884      TIP3     H1       HT       0.417000       1.00800           0
     19890 TIP3     884      TIP3     H2       HT       0.417000       1.00800           0
     19891 TIP3     885      TIP3     OH2      OT      -0.834000       15.9994           0
     19892 TIP3     885      TIP3     H1       HT       0.417000       1.00800           0
     19893 TIP3     885      TIP3     H2       HT       0.417000       1.00800           0
     19894 TIP3     886      TIP3     OH2      OT      -0.834000       15.9994           0
     19895 TIP3     886      TIP3     H1       HT       0.417000       1.00800           0
     19896 TIP3     886      TIP3     H2       HT       0.417000       1.00800           0
     19897 TIP3     887      TIP3     OH2      OT      -0.834000       15.9994           0
     19898 TIP3     887      TIP3     H1       HT       0.417000       1.00800           0
     19899 TIP3     887      TIP3     H2       HT       0.417000       1.00800           0
     19900 TIP3     888      TIP3     OH2      OT      -0.834000       15.9994           0
     19901 TIP3     888      TIP3     H1       HT       0.417000       1.00800           0
     19902 TIP3     888      TIP3     H2       HT       0.417000       1.00800           0
     19903 TIP3     889      TIP3     OH2      OT      -0.834000       15.9994           0
     19904 TIP3     889      TIP3     H1       HT       0.417000       1.00800           0
     19905 TIP3     889      TIP3     H2       HT       0.417000       1.00800           0
     19906 TIP3     890      TIP3     OH2      OT      -0.834000       15.9994           0
     19907 TIP3     890      TIP3     H1       HT       0.417000       1.00800           0
     19908 TIP3     890      TIP3     H2       HT       0.417000       1.00800           0
     19909 TIP3     891      TIP3     OH2      OT      -0.834000       15.9994           0
     19910 TIP3     891      TIP3     H1       HT       0.417000       1.00800           0
     19911 TIP3     891      TIP3     H2       HT       0.417000       1.00800           0
     19912 TIP3     892      TIP3     OH2      OT      -0.834000       15.9994           0
     19913 TIP3     892      TIP3     H1       HT       0.417000       1.00800           0
     19914 TIP3     892      TIP3     H2       HT       0.417000       1.00800           0
     19915 TIP3     893      TIP3     OH2      OT      -0.834000       15.9994           0
     19916 TIP3     893      TIP3     H1       HT       0.417000       1.00800           0
     19917 TIP3     893      TIP3     H2       HT       0.417000       1.00800           0
     19918 TIP3     894      TIP3     OH2      OT      -0.834000       15.9994           0
     19919 TIP3     894      TIP3     H1       HT       0.417000       1.00800           0
     19920 TIP3     894      TIP3     H2       HT       0.417000       1.00800           0
     19921 TIP3     895      TIP3     OH2      OT      -0.834000       15.9994           0
     19922 TIP3     895      TIP3     H1       HT       0.417000       1.00800           0
     19923 TIP3     895      TIP3     H2       HT       0.417000       1.00800           0
     19924 TIP3     896      TIP3     OH2      OT      -0.834000       15.9994           0
     19925 TIP3     896      TIP3     H1       HT       0.417000       1.00800           0
     19926 TIP3     896      TIP3     H2       HT       0.417000       1.00800           0
     19927 TIP3     897      TIP3     OH2      OT      -0.834000       15.9994           0
     19928 TIP3     897      TIP3     H1       HT       0.417000       1.00800           0
     19929 TIP3     897      TIP3     H2       HT       0.417000       1.00800           0
     19930 TIP3     898      TIP3     OH2      OT      -0.834000       15.9994           0
     19931 TIP3     898      TIP3     H1       HT       0.417000       1.00800           0
     19932 TIP3     898      TIP3     H2       HT       0.417000       1.00800           0
     19933 TIP3     899      TIP3     OH2      OT      -0.834000       15.9994           0
     19934 TIP3     899      TIP3     H1       HT       0.417000       1.00800           0
     19935 TIP3     899      TIP3     H2       HT       0.417000       1.00800           0
     19936 TIP3     900      TIP3     OH2      OT      -0.834000       15.9994           0
     19937 TIP3     900      TIP3     H1       HT       0.417000       1.00800           0
     19938 TIP3     900      TIP3     H2       HT       0.417000       1.00800           0
     19939 TIP3     901      TIP3     OH2      OT      -0.834000       15.9994           0
     19940 TIP3     901      TIP3     H1       HT       0.417000       1.00800           0
     19941 TIP3     901      TIP3     H2       HT       0.417000       1.00800           0
     19942 TIP3     902      TIP3     OH2      OT      -0.834000       15.9994           0
     19943 TIP3     902      TIP3     H1       HT       0.417000       1.00800           0
     19944 TIP3     902      TIP3     H2       HT       0.417000       1.00800           0
     19945 TIP3     903      TIP3     OH2      OT      -0.834000       15.9994           0
     19946 TIP3     903      TIP3     H1       HT       0.417000       1.00800           0
     19947 TIP3     903      TIP3     H2       HT       0.417000       1.00800           0
     19948 TIP3     904      TIP3     OH2      OT      -0.834000       15.9994           0
     19949 TIP3     904      TIP3     H1       HT       0.417000       1.00800           0
     19950 TIP3     904      TIP3     H2       HT       0.417000       1.00800           0
     19951 TIP3     905      TIP3     OH2      OT      -0.834000       15.9994           0
     19952 TIP3     905      TIP3     H1       HT       0.417000       1.00800           0
     19953 TIP3     905      TIP3     H2       HT       0.417000       1.00800           0
     19954 TIP3     906      TIP3     OH2      OT      -0.834000       15.9994           0
     19955 TIP3     906      TIP3     H1       HT       0.417000       1.00800           0
     19956 TIP3     906      TIP3     H2       HT       0.417000       1.00800           0
     19957 TIP3     907      TIP3     OH2      OT      -0.834000       15.9994           0
     19958 TIP3     907      TIP3     H1       HT       0.417000       1.00800           0
     19959 TIP3     907      TIP3     H2       HT       0.417000       1.00800           0
     19960 TIP3     908      TIP3     OH2      OT      -0.834000       15.9994           0
     19961 TIP3     908      TIP3     H1       HT       0.417000       1.00800           0
     19962 TIP3     908      TIP3     H2       HT       0.417000       1.00800           0
     19963 TIP3     909      TIP3     OH2      OT      -0.834000       15.9994           0
     19964 TIP3     909      TIP3     H1       HT       0.417000       1.00800           0
     19965 TIP3     909      TIP3     H2       HT       0.417000       1.00800           0
     19966 TIP3     910      TIP3     OH2      OT      -0.834000       15.9994           0
     19967 TIP3     910      TIP3     H1       HT       0.417000       1.00800           0
     19968 TIP3     910      TIP3     H2       HT       0.417000       1.00800           0
     19969 TIP3     911      TIP3     OH2      OT      -0.834000       15.9994           0
     19970 TIP3     911      TIP3     H1       HT       0.417000       1.00800           0
     19971 TIP3     911      TIP3     H2       HT       0.417000       1.00800           0
     19972 TIP3     912      TIP3     OH2      OT      -0.834000       15.9994           0
     19973 TIP3     912      TIP3     H1       HT       0.417000       1.00800           0
     19974 TIP3     912      TIP3     H2       HT       0.417000       1.00800           0
     19975 TIP3     913      TIP3     OH2      OT      -0.834000       15.9994           0
     19976 TIP3     913      TIP3     H1       HT       0.417000       1.00800           0
     19977 TIP3     913      TIP3     H2       HT       0.417000       1.00800           0
     19978 TIP3     914      TIP3     OH2      OT      -0.834000       15.9994           0
     19979 TIP3     914      TIP3     H1       HT       0.417000       1.00800           0
     19980 TIP3     914      TIP3     H2       HT       0.417000       1.00800           0
     19981 TIP3     915      TIP3     OH2      OT      -0.834000       15.9994           0
     19982 TIP3     915      TIP3     H1       HT       0.417000       1.00800           0
     19983 TIP3     915      TIP3     H2       HT       0.417000       1.00800           0
     19984 TIP3     916      TIP3     OH2      OT      -0.834000       15.9994           0
     19985 TIP3     916      TIP3     H1       HT       0.417000       1.00800           0
     19986 TIP3     916      TIP3     H2       HT       0.417000       1.00800           0
     19987 TIP3     917      TIP3     OH2      OT      -0.834000       15.9994           0
     19988 TIP3     917      TIP3     H1       HT       0.417000       1.00800           0
     19989 TIP3     917      TIP3     H2       HT       0.417000       1.00800           0
     19990 TIP3     918      TIP3     OH2      OT      -0.834000       15.9994           0
     19991 TIP3     918      TIP3     H1       HT       0.417000       1.00800           0
     19992 TIP3     918      TIP3     H2       HT       0.417000       1.00800           0
     19993 TIP3     919      TIP3     OH2      OT      -0.834000       15.9994           0
     19994 TIP3     919      TIP3     H1       HT       0.417000       1.00800           0
     19995 TIP3     919      TIP3     H2       HT       0.417000       1.00800           0
     19996 TIP3     920      TIP3     OH2      OT      -0.834000       15.9994           0
     19997 TIP3     920      TIP3     H1       HT       0.417000       1.00800           0
     19998 TIP3     920      TIP3     H2       HT       0.417000       1.00800           0
     19999 TIP3     921      TIP3     OH2      OT      -0.834000       15.9994           0
     20000 TIP3     921      TIP3     H1       HT       0.417000       1.00800           0
     20001 TIP3     921      TIP3     H2       HT       0.417000       1.00800           0
     20002 TIP3     922      TIP3     OH2      OT      -0.834000       15.9994           0
     20003 TIP3     922      TIP3     H1       HT       0.417000       1.00800           0
     20004 TIP3     922      TIP3     H2       HT       0.417000       1.00800           0
     20005 TIP3     923      TIP3     OH2      OT      -0.834000       15.9994           0
     20006 TIP3     923      TIP3     H1       HT       0.417000       1.00800           0
     20007 TIP3     923      TIP3     H2       HT       0.417000       1.00800           0
     20008 TIP3     924      TIP3     OH2      OT      -0.834000       15.9994           0
     20009 TIP3     924      TIP3     H1       HT       0.417000       1.00800           0
     20010 TIP3     924      TIP3     H2       HT       0.417000       1.00800           0
     20011 TIP3     925      TIP3     OH2      OT      -0.834000       15.9994           0
     20012 TIP3     925      TIP3     H1       HT       0.417000       1.00800           0
     20013 TIP3     925      TIP3     H2       HT       0.417000       1.00800           0
     20014 TIP3     926      TIP3     OH2      OT      -0.834000       15.9994           0
     20015 TIP3     926      TIP3     H1       HT       0.417000       1.00800           0
     20016 TIP3     926      TIP3     H2       HT       0.417000       1.00800           0
     20017 TIP3     927      TIP3     OH2      OT      -0.834000       15.9994           0
     20018 TIP3     927      TIP3     H1       HT       0.417000       1.00800           0
     20019 TIP3     927      TIP3     H2       HT       0.417000       1.00800           0
     20020 TIP3     928      TIP3     OH2      OT      -0.834000       15.9994           0
     20021 TIP3     928      TIP3     H1       HT       0.417000       1.00800           0
     20022 TIP3     928      TIP3     H2       HT       0.417000       1.00800           0
     20023 TIP3     929      TIP3     OH2      OT      -0.834000       15.9994           0
     20024 TIP3     929      TIP3     H1       HT       0.417000       1.00800           0
     20025 TIP3     929      TIP3     H2       HT       0.417000       1.00800           0
     20026 TIP3     930      TIP3     OH2      OT      -0.834000       15.9994           0
     20027 TIP3     930      TIP3     H1       HT       0.417000       1.00800           0
     20028 TIP3     930      TIP3     H2       HT       0.417000       1.00800           0
     20029 TIP3     931      TIP3     OH2      OT      -0.834000       15.9994           0
     20030 TIP3     931      TIP3     H1       HT       0.417000       1.00800           0
     20031 TIP3     931      TIP3     H2       HT       0.417000       1.00800           0
     20032 TIP3     932      TIP3     OH2      OT      -0.834000       15.9994           0
     20033 TIP3     932      TIP3     H1       HT       0.417000       1.00800           0
     20034 TIP3     932      TIP3     H2       HT       0.417000       1.00800           0
     20035 TIP3     933      TIP3     OH2      OT      -0.834000       15.9994           0
     20036 TIP3     933      TIP3     H1       HT       0.417000       1.00800           0
     20037 TIP3     933      TIP3     H2       HT       0.417000       1.00800           0
     20038 TIP3     934      TIP3     OH2      OT      -0.834000       15.9994           0
     20039 TIP3     934      TIP3     H1       HT       0.417000       1.00800           0
     20040 TIP3     934      TIP3     H2       HT       0.417000       1.00800           0
     20041 TIP3     935      TIP3     OH2      OT      -0.834000       15.9994           0
     20042 TIP3     935      TIP3     H1       HT       0.417000       1.00800           0
     20043 TIP3     935      TIP3     H2       HT       0.417000       1.00800           0
     20044 TIP3     936      TIP3     OH2      OT      -0.834000       15.9994           0
     20045 TIP3     936      TIP3     H1       HT       0.417000       1.00800           0
     20046 TIP3     936      TIP3     H2       HT       0.417000       1.00800           0
     20047 TIP3     937      TIP3     OH2      OT      -0.834000       15.9994           0
     20048 TIP3     937      TIP3     H1       HT       0.417000       1.00800           0
     20049 TIP3     937      TIP3     H2       HT       0.417000       1.00800           0
     20050 TIP3     938      TIP3     OH2      OT      -0.834000       15.9994           0
     20051 TIP3     938      TIP3     H1       HT       0.417000       1.00800           0
     20052 TIP3     938      TIP3     H2       HT       0.417000       1.00800           0
     20053 TIP3     939      TIP3     OH2      OT      -0.834000       15.9994           0
     20054 TIP3     939      TIP3     H1       HT       0.417000       1.00800           0
     20055 TIP3     939      TIP3     H2       HT       0.417000       1.00800           0
     20056 TIP3     940      TIP3     OH2      OT      -0.834000       15.9994           0
     20057 TIP3     940      TIP3     H1       HT       0.417000       1.00800           0
     20058 TIP3     940      TIP3     H2       HT       0.417000       1.00800           0
     20059 TIP3     941      TIP3     OH2      OT      -0.834000       15.9994           0
     20060 TIP3     941      TIP3     H1       HT       0.417000       1.00800           0
     20061 TIP3     941      TIP3     H2       HT       0.417000       1.00800           0
     20062 TIP3     942      TIP3     OH2      OT      -0.834000       15.9994           0
     20063 TIP3     942      TIP3     H1       HT       0.417000       1.00800           0
     20064 TIP3     942      TIP3     H2       HT       0.417000       1.00800           0
     20065 TIP3     943      TIP3     OH2      OT      -0.834000       15.9994           0
     20066 TIP3     943      TIP3     H1       HT       0.417000       1.00800           0
     20067 TIP3     943      TIP3     H2       HT       0.417000       1.00800           0
     20068 TIP3     944      TIP3     OH2      OT      -0.834000       15.9994           0
     20069 TIP3     944      TIP3     H1       HT       0.417000       1.00800           0
     20070 TIP3     944      TIP3     H2       HT       0.417000       1.00800           0
     20071 TIP3     945      TIP3     OH2      OT      -0.834000       15.9994           0
     20072 TIP3     945      TIP3     H1       HT       0.417000       1.00800           0
     20073 TIP3     945      TIP3     H2       HT       0.417000       1.00800           0
     20074 TIP3     946      TIP3     OH2      OT      -0.834000       15.9994           0
     20075 TIP3     946      TIP3     H1       HT       0.417000       1.00800           0
     20076 TIP3     946      TIP3     H2       HT       0.417000       1.00800           0
     20077 TIP3     947      TIP3     OH2      OT      -0.834000       15.9994           0
     20078 TIP3     947      TIP3     H1       HT       0.417000       1.00800           0
     20079 TIP3     947      TIP3     H2       HT       0.417000       1.00800           0
     20080 TIP3     948      TIP3     OH2      OT      -0.834000       15.9994           0
     20081 TIP3     948      TIP3     H1       HT       0.417000       1.00800           0
     20082 TIP3     948      TIP3     H2       HT       0.417000       1.00800           0
     20083 TIP3     949      TIP3     OH2      OT      -0.834000       15.9994           0
     20084 TIP3     949      TIP3     H1       HT       0.417000       1.00800           0
     20085 TIP3     949      TIP3     H2       HT       0.417000       1.00800           0
     20086 TIP3     950      TIP3     OH2      OT      -0.834000       15.9994           0
     20087 TIP3     950      TIP3     H1       HT       0.417000       1.00800           0
     20088 TIP3     950      TIP3     H2       HT       0.417000       1.00800           0
     20089 TIP3     951      TIP3     OH2      OT      -0.834000       15.9994           0
     20090 TIP3     951      TIP3     H1       HT       0.417000       1.00800           0
     20091 TIP3     951      TIP3     H2       HT       0.417000       1.00800           0
     20092 TIP3     952      TIP3     OH2      OT      -0.834000       15.9994           0
     20093 TIP3     952      TIP3     H1       HT       0.417000       1.00800           0
     20094 TIP3     952      TIP3     H2       HT       0.417000       1.00800           0
     20095 TIP3     953      TIP3     OH2      OT      -0.834000       15.9994           0
     20096 TIP3     953      TIP3     H1       HT       0.417000       1.00800           0
     20097 TIP3     953      TIP3     H2       HT       0.417000       1.00800           0
     20098 TIP3     954      TIP3     OH2      OT      -0.834000       15.9994           0
     20099 TIP3     954      TIP3     H1       HT       0.417000       1.00800           0
     20100 TIP3     954      TIP3     H2       HT       0.417000       1.00800           0
     20101 TIP3     955      TIP3     OH2      OT      -0.834000       15.9994           0
     20102 TIP3     955      TIP3     H1       HT       0.417000       1.00800           0
     20103 TIP3     955      TIP3     H2       HT       0.417000       1.00800           0
     20104 TIP3     956      TIP3     OH2      OT      -0.834000       15.9994           0
     20105 TIP3     956      TIP3     H1       HT       0.417000       1.00800           0
     20106 TIP3     956      TIP3     H2       HT       0.417000       1.00800           0
     20107 TIP3     957      TIP3     OH2      OT      -0.834000       15.9994           0
     20108 TIP3     957      TIP3     H1       HT       0.417000       1.00800           0
     20109 TIP3     957      TIP3     H2       HT       0.417000       1.00800           0
     20110 TIP3     958      TIP3     OH2      OT      -0.834000       15.9994           0
     20111 TIP3     958      TIP3     H1       HT       0.417000       1.00800           0
     20112 TIP3     958      TIP3     H2       HT       0.417000       1.00800           0
     20113 TIP3     959      TIP3     OH2      OT      -0.834000       15.9994           0
     20114 TIP3     959      TIP3     H1       HT       0.417000       1.00800           0
     20115 TIP3     959      TIP3     H2       HT       0.417000       1.00800           0
     20116 TIP3     960      TIP3     OH2      OT      -0.834000       15.9994           0
     20117 TIP3     960      TIP3     H1       HT       0.417000       1.00800           0
     20118 TIP3     960      TIP3     H2       HT       0.417000       1.00800           0
     20119 TIP3     961      TIP3     OH2      OT      -0.834000       15.9994           0
     20120 TIP3     961      TIP3     H1       HT       0.417000       1.00800           0
     20121 TIP3     961      TIP3     H2       HT       0.417000       1.00800           0
     20122 TIP3     962      TIP3     OH2      OT      -0.834000       15.9994           0
     20123 TIP3     962      TIP3     H1       HT       0.417000       1.00800           0
     20124 TIP3     962      TIP3     H2       HT       0.417000       1.00800           0
     20125 TIP3     963      TIP3     OH2      OT      -0.834000       15.9994           0
     20126 TIP3     963      TIP3     H1       HT       0.417000       1.00800           0
     20127 TIP3     963      TIP3     H2       HT       0.417000       1.00800           0
     20128 TIP3     964      TIP3     OH2      OT      -0.834000       15.9994           0
     20129 TIP3     964      TIP3     H1       HT       0.417000       1.00800           0
     20130 TIP3     964      TIP3     H2       HT       0.417000       1.00800           0
     20131 TIP3     965      TIP3     OH2      OT      -0.834000       15.9994           0
     20132 TIP3     965      TIP3     H1       HT       0.417000       1.00800           0
     20133 TIP3     965      TIP3     H2       HT       0.417000       1.00800           0
     20134 TIP3     966      TIP3     OH2      OT      -0.834000       15.9994           0
     20135 TIP3     966      TIP3     H1       HT       0.417000       1.00800           0
     20136 TIP3     966      TIP3     H2       HT       0.417000       1.00800           0
     20137 TIP3     967      TIP3     OH2      OT      -0.834000       15.9994           0
     20138 TIP3     967      TIP3     H1       HT       0.417000       1.00800           0
     20139 TIP3     967      TIP3     H2       HT       0.417000       1.00800           0
     20140 TIP3     968      TIP3     OH2      OT      -0.834000       15.9994           0
     20141 TIP3     968      TIP3     H1       HT       0.417000       1.00800           0
     20142 TIP3     968      TIP3     H2       HT       0.417000       1.00800           0
     20143 TIP3     969      TIP3     OH2      OT      -0.834000       15.9994           0
     20144 TIP3     969      TIP3     H1       HT       0.417000       1.00800           0
     20145 TIP3     969      TIP3     H2       HT       0.417000       1.00800           0
     20146 TIP3     970      TIP3     OH2      OT      -0.834000       15.9994           0
     20147 TIP3     970      TIP3     H1       HT       0.417000       1.00800           0
     20148 TIP3     970      TIP3     H2       HT       0.417000       1.00800           0
     20149 TIP3     971      TIP3     OH2      OT      -0.834000       15.9994           0
     20150 TIP3     971      TIP3     H1       HT       0.417000       1.00800           0
     20151 TIP3     971      TIP3     H2       HT       0.417000       1.00800           0
     20152 TIP3     972      TIP3     OH2      OT      -0.834000       15.9994           0
     20153 TIP3     972      TIP3     H1       HT       0.417000       1.00800           0
     20154 TIP3     972      TIP3     H2       HT       0.417000       1.00800           0
     20155 TIP3     973      TIP3     OH2      OT      -0.834000       15.9994           0
     20156 TIP3     973      TIP3     H1       HT       0.417000       1.00800           0
     20157 TIP3     973      TIP3     H2       HT       0.417000       1.00800           0
     20158 TIP3     974      TIP3     OH2      OT      -0.834000       15.9994           0
     20159 TIP3     974      TIP3     H1       HT       0.417000       1.00800           0
     20160 TIP3     974      TIP3     H2       HT       0.417000       1.00800           0
     20161 TIP3     975      TIP3     OH2      OT      -0.834000       15.9994           0
     20162 TIP3     975      TIP3     H1       HT       0.417000       1.00800           0
     20163 TIP3     975      TIP3     H2       HT       0.417000       1.00800           0
     20164 TIP3     976      TIP3     OH2      OT      -0.834000       15.9994           0
     20165 TIP3     976      TIP3     H1       HT       0.417000       1.00800           0
     20166 TIP3     976      TIP3     H2       HT       0.417000       1.00800           0
     20167 TIP3     977      TIP3     OH2      OT      -0.834000       15.9994           0
     20168 TIP3     977      TIP3     H1       HT       0.417000       1.00800           0
     20169 TIP3     977      TIP3     H2       HT       0.417000       1.00800           0
     20170 TIP3     978      TIP3     OH2      OT      -0.834000       15.9994           0
     20171 TIP3     978      TIP3     H1       HT       0.417000       1.00800           0
     20172 TIP3     978      TIP3     H2       HT       0.417000       1.00800           0
     20173 TIP3     979      TIP3     OH2      OT      -0.834000       15.9994           0
     20174 TIP3     979      TIP3     H1       HT       0.417000       1.00800           0
     20175 TIP3     979      TIP3     H2       HT       0.417000       1.00800           0
     20176 TIP3     980      TIP3     OH2      OT      -0.834000       15.9994           0
     20177 TIP3     980      TIP3     H1       HT       0.417000       1.00800           0
     20178 TIP3     980      TIP3     H2       HT       0.417000       1.00800           0
     20179 TIP3     981      TIP3     OH2      OT      -0.834000       15.9994           0
     20180 TIP3     981      TIP3     H1       HT       0.417000       1.00800           0
     20181 TIP3     981      TIP3     H2       HT       0.417000       1.00800           0
     20182 TIP3     982      TIP3     OH2      OT      -0.834000       15.9994           0
     20183 TIP3     982      TIP3     H1       HT       0.417000       1.00800           0
     20184 TIP3     982      TIP3     H2       HT       0.417000       1.00800           0
     20185 TIP3     983      TIP3     OH2      OT      -0.834000       15.9994           0
     20186 TIP3     983      TIP3     H1       HT       0.417000       1.00800           0
     20187 TIP3     983      TIP3     H2       HT       0.417000       1.00800           0
     20188 TIP3     984      TIP3     OH2      OT      -0.834000       15.9994           0
     20189 TIP3     984      TIP3     H1       HT       0.417000       1.00800           0
     20190 TIP3     984      TIP3     H2       HT       0.417000       1.00800           0
     20191 TIP3     985      TIP3     OH2      OT      -0.834000       15.9994           0
     20192 TIP3     985      TIP3     H1       HT       0.417000       1.00800           0
     20193 TIP3     985      TIP3     H2       HT       0.417000       1.00800           0
     20194 TIP3     986      TIP3     OH2      OT      -0.834000       15.9994           0
     20195 TIP3     986      TIP3     H1       HT       0.417000       1.00800           0
     20196 TIP3     986      TIP3     H2       HT       0.417000       1.00800           0
     20197 TIP3     987      TIP3     OH2      OT      -0.834000       15.9994           0
     20198 TIP3     987      TIP3     H1       HT       0.417000       1.00800           0
     20199 TIP3     987      TIP3     H2       HT       0.417000       1.00800           0
     20200 TIP3     988      TIP3     OH2      OT      -0.834000       15.9994           0
     20201 TIP3     988      TIP3     H1       HT       0.417000       1.00800           0
     20202 TIP3     988      TIP3     H2       HT       0.417000       1.00800           0
     20203 TIP3     989      TIP3     OH2      OT      -0.834000       15.9994           0
     20204 TIP3     989      TIP3     H1       HT       0.417000       1.00800           0
     20205 TIP3     989      TIP3     H2       HT       0.417000       1.00800           0
     20206 TIP3     990      TIP3     OH2      OT      -0.834000       15.9994           0
     20207 TIP3     990      TIP3     H1       HT       0.417000       1.00800           0
     20208 TIP3     990      TIP3     H2       HT       0.417000       1.00800           0
     20209 TIP3     991      TIP3     OH2      OT      -0.834000       15.9994           0
     20210 TIP3     991      TIP3     H1       HT       0.417000       1.00800           0
     20211 TIP3     991      TIP3     H2       HT       0.417000       1.00800           0
     20212 TIP3     992      TIP3     OH2      OT      -0.834000       15.9994           0
     20213 TIP3     992      TIP3     H1       HT       0.417000       1.00800           0
     20214 TIP3     992      TIP3     H2       HT       0.417000       1.00800           0
     20215 TIP3     993      TIP3     OH2      OT      -0.834000       15.9994           0
     20216 TIP3     993      TIP3     H1       HT       0.417000       1.00800           0
     20217 TIP3     993      TIP3     H2       HT       0.417000       1.00800           0
     20218 TIP3     994      TIP3     OH2      OT      -0.834000       15.9994           0
     20219 TIP3     994      TIP3     H1       HT       0.417000       1.00800           0
     20220 TIP3     994      TIP3     H2       HT       0.417000       1.00800           0
     20221 TIP3     995      TIP3     OH2      OT      -0.834000       15.9994           0
     20222 TIP3     995      TIP3     H1       HT       0.417000       1.00800           0
     20223 TIP3     995      TIP3     H2       HT       0.417000       1.00800           0
     20224 TIP3     996      TIP3     OH2      OT      -0.834000       15.9994           0
     20225 TIP3     996      TIP3     H1       HT       0.417000       1.00800           0
     20226 TIP3     996      TIP3     H2       HT       0.417000       1.00800           0
     20227 TIP3     997      TIP3     OH2      OT      -0.834000       15.9994           0
     20228 TIP3     997      TIP3     H1       HT       0.417000       1.00800           0
     20229 TIP3     997      TIP3     H2       HT       0.417000       1.00800           0
     20230 TIP3     998      TIP3     OH2      OT      -0.834000       15.9994           0
     20231 TIP3     998      TIP3     H1       HT       0.417000       1.00800           0
     20232 TIP3     998      TIP3     H2       HT       0.417000       1.00800           0
     20233 TIP3     999      TIP3     OH2      OT      -0.834000       15.9994           0
     20234 TIP3     999      TIP3     H1       HT       0.417000       1.00800           0
     20235 TIP3     999      TIP3     H2       HT       0.417000       1.00800           0
     20236 TIP3     1000     TIP3     OH2      OT      -0.834000       15.9994           0
     20237 TIP3     1000     TIP3     H1       HT       0.417000       1.00800           0
     20238 TIP3     1000     TIP3     H2       HT       0.417000       1.00800           0
     20239 TIP3     1001     TIP3     OH2      OT      -0.834000       15.9994           0
     20240 TIP3     1001     TIP3     H1       HT       0.417000       1.00800           0
     20241 TIP3     1001     TIP3     H2       HT       0.417000       1.00800           0
     20242 TIP3     1002     TIP3     OH2      OT      -0.834000       15.9994           0
     20243 TIP3     1002     TIP3     H1       HT       0.417000       1.00800           0
     20244 TIP3     1002     TIP3     H2       HT       0.417000       1.00800           0
     20245 TIP3     1003     TIP3     OH2      OT      -0.834000       15.9994           0
     20246 TIP3     1003     TIP3     H1       HT       0.417000       1.00800           0
     20247 TIP3     1003     TIP3     H2       HT       0.417000       1.00800           0
     20248 TIP3     1004     TIP3     OH2      OT      -0.834000       15.9994           0
     20249 TIP3     1004     TIP3     H1       HT       0.417000       1.00800           0
     20250 TIP3     1004     TIP3     H2       HT       0.417000       1.00800           0
     20251 TIP3     1005     TIP3     OH2      OT      -0.834000       15.9994           0
     20252 TIP3     1005     TIP3     H1       HT       0.417000       1.00800           0
     20253 TIP3     1005     TIP3     H2       HT       0.417000       1.00800           0
     20254 TIP3     1006     TIP3     OH2      OT      -0.834000       15.9994           0
     20255 TIP3     1006     TIP3     H1       HT       0.417000       1.00800           0
     20256 TIP3     1006     TIP3     H2       HT       0.417000       1.00800           0
     20257 TIP3     1007     TIP3     OH2      OT      -0.834000       15.9994           0
     20258 TIP3     1007     TIP3     H1       HT       0.417000       1.00800           0
     20259 TIP3     1007     TIP3     H2       HT       0.417000       1.00800           0
     20260 TIP3     1008     TIP3     OH2      OT      -0.834000       15.9994           0
     20261 TIP3     1008     TIP3     H1       HT       0.417000       1.00800           0
     20262 TIP3     1008     TIP3     H2       HT       0.417000       1.00800           0
     20263 TIP3     1009     TIP3     OH2      OT      -0.834000       15.9994           0
     20264 TIP3     1009     TIP3     H1       HT       0.417000       1.00800           0
     20265 TIP3     1009     TIP3     H2       HT       0.417000       1.00800           0
     20266 TIP3     1010     TIP3     OH2      OT      -0.834000       15.9994           0
     20267 TIP3     1010     TIP3     H1       HT       0.417000       1.00800           0
     20268 TIP3     1010     TIP3     H2       HT       0.417000       1.00800           0
     20269 TIP3     1011     TIP3     OH2      OT      -0.834000       15.9994           0
     20270 TIP3     1011     TIP3     H1       HT       0.417000       1.00800           0
     20271 TIP3     1011     TIP3     H2       HT       0.417000       1.00800           0
     20272 TIP3     1012     TIP3     OH2      OT      -0.834000       15.9994           0
     20273 TIP3     1012     TIP3     H1       HT       0.417000       1.00800           0
     20274 TIP3     1012     TIP3     H2       HT       0.417000       1.00800           0
     20275 TIP3     1013     TIP3     OH2      OT      -0.834000       15.9994           0
     20276 TIP3     1013     TIP3     H1       HT       0.417000       1.00800           0
     20277 TIP3     1013     TIP3     H2       HT       0.417000       1.00800           0
     20278 TIP3     1014     TIP3     OH2      OT      -0.834000       15.9994           0
     20279 TIP3     1014     TIP3     H1       HT       0.417000       1.00800           0
     20280 TIP3     1014     TIP3     H2       HT       0.417000       1.00800           0
     20281 TIP3     1015     TIP3     OH2      OT      -0.834000       15.9994           0
     20282 TIP3     1015     TIP3     H1       HT       0.417000       1.00800           0
     20283 TIP3     1015     TIP3     H2       HT       0.417000       1.00800           0
     20284 TIP3     1016     TIP3     OH2      OT      -0.834000       15.9994           0
     20285 TIP3     1016     TIP3     H1       HT       0.417000       1.00800           0
     20286 TIP3     1016     TIP3     H2       HT       0.417000       1.00800           0
     20287 TIP3     1017     TIP3     OH2      OT      -0.834000       15.9994           0
     20288 TIP3     1017     TIP3     H1       HT       0.417000       1.00800           0
     20289 TIP3     1017     TIP3     H2       HT       0.417000       1.00800           0
     20290 TIP3     1018     TIP3     OH2      OT      -0.834000       15.9994           0
     20291 TIP3     1018     TIP3     H1       HT       0.417000       1.00800           0
     20292 TIP3     1018     TIP3     H2       HT       0.417000       1.00800           0
     20293 TIP3     1019     TIP3     OH2      OT      -0.834000       15.9994           0
     20294 TIP3     1019     TIP3     H1       HT       0.417000       1.00800           0
     20295 TIP3     1019     TIP3     H2       HT       0.417000       1.00800           0
     20296 TIP3     1020     TIP3     OH2      OT      -0.834000       15.9994           0
     20297 TIP3     1020     TIP3     H1       HT       0.417000       1.00800           0
     20298 TIP3     1020     TIP3     H2       HT       0.417000       1.00800           0
     20299 TIP3     1021     TIP3     OH2      OT      -0.834000       15.9994           0
     20300 TIP3     1021     TIP3     H1       HT       0.417000       1.00800           0
     20301 TIP3     1021     TIP3     H2       HT       0.417000       1.00800           0
     20302 TIP3     1022     TIP3     OH2      OT      -0.834000       15.9994           0
     20303 TIP3     1022     TIP3     H1       HT       0.417000       1.00800           0
     20304 TIP3     1022     TIP3     H2       HT       0.417000       1.00800           0
     20305 TIP3     1023     TIP3     OH2      OT      -0.834000       15.9994           0
     20306 TIP3     1023     TIP3     H1       HT       0.417000       1.00800           0
     20307 TIP3     1023     TIP3     H2       HT       0.417000       1.00800           0
     20308 TIP3     1024     TIP3     OH2      OT      -0.834000       15.9994           0
     20309 TIP3     1024     TIP3     H1       HT       0.417000       1.00800           0
     20310 TIP3     1024     TIP3     H2       HT       0.417000       1.00800           0
     20311 TIP3     1025     TIP3     OH2      OT      -0.834000       15.9994           0
     20312 TIP3     1025     TIP3     H1       HT       0.417000       1.00800           0
     20313 TIP3     1025     TIP3     H2       HT       0.417000       1.00800           0
     20314 TIP3     1026     TIP3     OH2      OT      -0.834000       15.9994           0
     20315 TIP3     1026     TIP3     H1       HT       0.417000       1.00800           0
     20316 TIP3     1026     TIP3     H2       HT       0.417000       1.00800           0
     20317 TIP3     1027     TIP3     OH2      OT      -0.834000       15.9994           0
     20318 TIP3     1027     TIP3     H1       HT       0.417000       1.00800           0
     20319 TIP3     1027     TIP3     H2       HT       0.417000       1.00800           0
     20320 TIP3     1028     TIP3     OH2      OT      -0.834000       15.9994           0
     20321 TIP3     1028     TIP3     H1       HT       0.417000       1.00800           0
     20322 TIP3     1028     TIP3     H2       HT       0.417000       1.00800           0
     20323 TIP3     1029     TIP3     OH2      OT      -0.834000       15.9994           0
     20324 TIP3     1029     TIP3     H1       HT       0.417000       1.00800           0
     20325 TIP3     1029     TIP3     H2       HT       0.417000       1.00800           0
     20326 TIP3     1030     TIP3     OH2      OT      -0.834000       15.9994           0
     20327 TIP3     1030     TIP3     H1       HT       0.417000       1.00800           0
     20328 TIP3     1030     TIP3     H2       HT       0.417000       1.00800           0
     20329 TIP3     1031     TIP3     OH2      OT      -0.834000       15.9994           0
     20330 TIP3     1031     TIP3     H1       HT       0.417000       1.00800           0
     20331 TIP3     1031     TIP3     H2       HT       0.417000       1.00800           0
     20332 TIP3     1032     TIP3     OH2      OT      -0.834000       15.9994           0
     20333 TIP3     1032     TIP3     H1       HT       0.417000       1.00800           0
     20334 TIP3     1032     TIP3     H2       HT       0.417000       1.00800           0
     20335 TIP3     1033     TIP3     OH2      OT      -0.834000       15.9994           0
     20336 TIP3     1033     TIP3     H1       HT       0.417000       1.00800           0
     20337 TIP3     1033     TIP3     H2       HT       0.417000       1.00800           0
     20338 TIP3     1034     TIP3     OH2      OT      -0.834000       15.9994           0
     20339 TIP3     1034     TIP3     H1       HT       0.417000       1.00800           0
     20340 TIP3     1034     TIP3     H2       HT       0.417000       1.00800           0
     20341 TIP3     1035     TIP3     OH2      OT      -0.834000       15.9994           0
     20342 TIP3     1035     TIP3     H1       HT       0.417000       1.00800           0
     20343 TIP3     1035     TIP3     H2       HT       0.417000       1.00800           0
     20344 TIP3     1036     TIP3     OH2      OT      -0.834000       15.9994           0
     20345 TIP3     1036     TIP3     H1       HT       0.417000       1.00800           0
     20346 TIP3     1036     TIP3     H2       HT       0.417000       1.00800           0
     20347 TIP3     1037     TIP3     OH2      OT      -0.834000       15.9994           0
     20348 TIP3     1037     TIP3     H1       HT       0.417000       1.00800           0
     20349 TIP3     1037     TIP3     H2       HT       0.417000       1.00800           0
     20350 TIP3     1038     TIP3     OH2      OT      -0.834000       15.9994           0
     20351 TIP3     1038     TIP3     H1       HT       0.417000       1.00800           0
     20352 TIP3     1038     TIP3     H2       HT       0.417000       1.00800           0
     20353 TIP3     1039     TIP3     OH2      OT      -0.834000       15.9994           0
     20354 TIP3     1039     TIP3     H1       HT       0.417000       1.00800           0
     20355 TIP3     1039     TIP3     H2       HT       0.417000       1.00800           0
     20356 TIP3     1040     TIP3     OH2      OT      -0.834000       15.9994           0
     20357 TIP3     1040     TIP3     H1       HT       0.417000       1.00800           0
     20358 TIP3     1040     TIP3     H2       HT       0.417000       1.00800           0
     20359 TIP3     1041     TIP3     OH2      OT      -0.834000       15.9994           0
     20360 TIP3     1041     TIP3     H1       HT       0.417000       1.00800           0
     20361 TIP3     1041     TIP3     H2       HT       0.417000       1.00800           0
     20362 TIP3     1042     TIP3     OH2      OT      -0.834000       15.9994           0
     20363 TIP3     1042     TIP3     H1       HT       0.417000       1.00800           0
     20364 TIP3     1042     TIP3     H2       HT       0.417000       1.00800           0
     20365 TIP3     1043     TIP3     OH2      OT      -0.834000       15.9994           0
     20366 TIP3     1043     TIP3     H1       HT       0.417000       1.00800           0
     20367 TIP3     1043     TIP3     H2       HT       0.417000       1.00800           0
     20368 TIP3     1044     TIP3     OH2      OT      -0.834000       15.9994           0
     20369 TIP3     1044     TIP3     H1       HT       0.417000       1.00800           0
     20370 TIP3     1044     TIP3     H2       HT       0.417000       1.00800           0
     20371 TIP3     1045     TIP3     OH2      OT      -0.834000       15.9994           0
     20372 TIP3     1045     TIP3     H1       HT       0.417000       1.00800           0
     20373 TIP3     1045     TIP3     H2       HT       0.417000       1.00800           0
     20374 TIP3     1046     TIP3     OH2      OT      -0.834000       15.9994           0
     20375 TIP3     1046     TIP3     H1       HT       0.417000       1.00800           0
     20376 TIP3     1046     TIP3     H2       HT       0.417000       1.00800           0
     20377 TIP3     1047     TIP3     OH2      OT      -0.834000       15.9994           0
     20378 TIP3     1047     TIP3     H1       HT       0.417000       1.00800           0
     20379 TIP3     1047     TIP3     H2       HT       0.417000       1.00800           0
     20380 TIP3     1048     TIP3     OH2      OT      -0.834000       15.9994           0
     20381 TIP3     1048     TIP3     H1       HT       0.417000       1.00800           0
     20382 TIP3     1048     TIP3     H2       HT       0.417000       1.00800           0
     20383 TIP3     1049     TIP3     OH2      OT      -0.834000       15.9994           0
     20384 TIP3     1049     TIP3     H1       HT       0.417000       1.00800           0
     20385 TIP3     1049     TIP3     H2       HT       0.417000       1.00800           0
     20386 TIP3     1050     TIP3     OH2      OT      -0.834000       15.9994           0
     20387 TIP3     1050     TIP3     H1       HT       0.417000       1.00800           0
     20388 TIP3     1050     TIP3     H2       HT       0.417000       1.00800           0
     20389 TIP3     1051     TIP3     OH2      OT      -0.834000       15.9994           0
     20390 TIP3     1051     TIP3     H1       HT       0.417000       1.00800           0
     20391 TIP3     1051     TIP3     H2       HT       0.417000       1.00800           0
     20392 TIP3     1052     TIP3     OH2      OT      -0.834000       15.9994           0
     20393 TIP3     1052     TIP3     H1       HT       0.417000       1.00800           0
     20394 TIP3     1052     TIP3     H2       HT       0.417000       1.00800           0
     20395 TIP3     1053     TIP3     OH2      OT      -0.834000       15.9994           0
     20396 TIP3     1053     TIP3     H1       HT       0.417000       1.00800           0
     20397 TIP3     1053     TIP3     H2       HT       0.417000       1.00800           0
     20398 TIP3     1054     TIP3     OH2      OT      -0.834000       15.9994           0
     20399 TIP3     1054     TIP3     H1       HT       0.417000       1.00800           0
     20400 TIP3     1054     TIP3     H2       HT       0.417000       1.00800           0
     20401 TIP3     1055     TIP3     OH2      OT      -0.834000       15.9994           0
     20402 TIP3     1055     TIP3     H1       HT       0.417000       1.00800           0
     20403 TIP3     1055     TIP3     H2       HT       0.417000       1.00800           0
     20404 TIP3     1056     TIP3     OH2      OT      -0.834000       15.9994           0
     20405 TIP3     1056     TIP3     H1       HT       0.417000       1.00800           0
     20406 TIP3     1056     TIP3     H2       HT       0.417000       1.00800           0
     20407 TIP3     1057     TIP3     OH2      OT      -0.834000       15.9994           0
     20408 TIP3     1057     TIP3     H1       HT       0.417000       1.00800           0
     20409 TIP3     1057     TIP3     H2       HT       0.417000       1.00800           0
     20410 TIP3     1058     TIP3     OH2      OT      -0.834000       15.9994           0
     20411 TIP3     1058     TIP3     H1       HT       0.417000       1.00800           0
     20412 TIP3     1058     TIP3     H2       HT       0.417000       1.00800           0
     20413 TIP3     1059     TIP3     OH2      OT      -0.834000       15.9994           0
     20414 TIP3     1059     TIP3     H1       HT       0.417000       1.00800           0
     20415 TIP3     1059     TIP3     H2       HT       0.417000       1.00800           0
     20416 TIP3     1060     TIP3     OH2      OT      -0.834000       15.9994           0
     20417 TIP3     1060     TIP3     H1       HT       0.417000       1.00800           0
     20418 TIP3     1060     TIP3     H2       HT       0.417000       1.00800           0
     20419 TIP3     1061     TIP3     OH2      OT      -0.834000       15.9994           0
     20420 TIP3     1061     TIP3     H1       HT       0.417000       1.00800           0
     20421 TIP3     1061     TIP3     H2       HT       0.417000       1.00800           0
     20422 TIP3     1062     TIP3     OH2      OT      -0.834000       15.9994           0
     20423 TIP3     1062     TIP3     H1       HT       0.417000       1.00800           0
     20424 TIP3     1062     TIP3     H2       HT       0.417000       1.00800           0
     20425 TIP3     1063     TIP3     OH2      OT      -0.834000       15.9994           0
     20426 TIP3     1063     TIP3     H1       HT       0.417000       1.00800           0
     20427 TIP3     1063     TIP3     H2       HT       0.417000       1.00800           0
     20428 TIP3     1064     TIP3     OH2      OT      -0.834000       15.9994           0
     20429 TIP3     1064     TIP3     H1       HT       0.417000       1.00800           0
     20430 TIP3     1064     TIP3     H2       HT       0.417000       1.00800           0
     20431 TIP3     1065     TIP3     OH2      OT      -0.834000       15.9994           0
     20432 TIP3     1065     TIP3     H1       HT       0.417000       1.00800           0
     20433 TIP3     1065     TIP3     H2       HT       0.417000       1.00800           0
     20434 TIP3     1066     TIP3     OH2      OT      -0.834000       15.9994           0
     20435 TIP3     1066     TIP3     H1       HT       0.417000       1.00800           0
     20436 TIP3     1066     TIP3     H2       HT       0.417000       1.00800           0
     20437 TIP3     1067     TIP3     OH2      OT      -0.834000       15.9994           0
     20438 TIP3     1067     TIP3     H1       HT       0.417000       1.00800           0
     20439 TIP3     1067     TIP3     H2       HT       0.417000       1.00800           0
     20440 TIP3     1068     TIP3     OH2      OT      -0.834000       15.9994           0
     20441 TIP3     1068     TIP3     H1       HT       0.417000       1.00800           0
     20442 TIP3     1068     TIP3     H2       HT       0.417000       1.00800           0
     20443 TIP3     1069     TIP3     OH2      OT      -0.834000       15.9994           0
     20444 TIP3     1069     TIP3     H1       HT       0.417000       1.00800           0
     20445 TIP3     1069     TIP3     H2       HT       0.417000       1.00800           0
     20446 TIP3     1070     TIP3     OH2      OT      -0.834000       15.9994           0
     20447 TIP3     1070     TIP3     H1       HT       0.417000       1.00800           0
     20448 TIP3     1070     TIP3     H2       HT       0.417000       1.00800           0
     20449 TIP3     1071     TIP3     OH2      OT      -0.834000       15.9994           0
     20450 TIP3     1071     TIP3     H1       HT       0.417000       1.00800           0
     20451 TIP3     1071     TIP3     H2       HT       0.417000       1.00800           0
     20452 TIP3     1072     TIP3     OH2      OT      -0.834000       15.9994           0
     20453 TIP3     1072     TIP3     H1       HT       0.417000       1.00800           0
     20454 TIP3     1072     TIP3     H2       HT       0.417000       1.00800           0
     20455 TIP3     1073     TIP3     OH2      OT      -0.834000       15.9994           0
     20456 TIP3     1073     TIP3     H1       HT       0.417000       1.00800           0
     20457 TIP3     1073     TIP3     H2       HT       0.417000       1.00800           0
     20458 TIP3     1074     TIP3     OH2      OT      -0.834000       15.9994           0
     20459 TIP3     1074     TIP3     H1       HT       0.417000       1.00800           0
     20460 TIP3     1074     TIP3     H2       HT       0.417000       1.00800           0
     20461 TIP3     1075     TIP3     OH2      OT      -0.834000       15.9994           0
     20462 TIP3     1075     TIP3     H1       HT       0.417000       1.00800           0
     20463 TIP3     1075     TIP3     H2       HT       0.417000       1.00800           0
     20464 TIP3     1076     TIP3     OH2      OT      -0.834000       15.9994           0
     20465 TIP3     1076     TIP3     H1       HT       0.417000       1.00800           0
     20466 TIP3     1076     TIP3     H2       HT       0.417000       1.00800           0
     20467 TIP3     1077     TIP3     OH2      OT      -0.834000       15.9994           0
     20468 TIP3     1077     TIP3     H1       HT       0.417000       1.00800           0
     20469 TIP3     1077     TIP3     H2       HT       0.417000       1.00800           0
     20470 TIP3     1078     TIP3     OH2      OT      -0.834000       15.9994           0
     20471 TIP3     1078     TIP3     H1       HT       0.417000       1.00800           0
     20472 TIP3     1078     TIP3     H2       HT       0.417000       1.00800           0
     20473 TIP3     1079     TIP3     OH2      OT      -0.834000       15.9994           0
     20474 TIP3     1079     TIP3     H1       HT       0.417000       1.00800           0
     20475 TIP3     1079     TIP3     H2       HT       0.417000       1.00800           0
     20476 TIP3     1080     TIP3     OH2      OT      -0.834000       15.9994           0
     20477 TIP3     1080     TIP3     H1       HT       0.417000       1.00800           0
     20478 TIP3     1080     TIP3     H2       HT       0.417000       1.00800           0
     20479 TIP3     1081     TIP3     OH2      OT      -0.834000       15.9994           0
     20480 TIP3     1081     TIP3     H1       HT       0.417000       1.00800           0
     20481 TIP3     1081     TIP3     H2       HT       0.417000       1.00800           0
     20482 TIP3     1082     TIP3     OH2      OT      -0.834000       15.9994           0
     20483 TIP3     1082     TIP3     H1       HT       0.417000       1.00800           0
     20484 TIP3     1082     TIP3     H2       HT       0.417000       1.00800           0
     20485 TIP3     1083     TIP3     OH2      OT      -0.834000       15.9994           0
     20486 TIP3     1083     TIP3     H1       HT       0.417000       1.00800           0
     20487 TIP3     1083     TIP3     H2       HT       0.417000       1.00800           0
     20488 TIP3     1084     TIP3     OH2      OT      -0.834000       15.9994           0
     20489 TIP3     1084     TIP3     H1       HT       0.417000       1.00800           0
     20490 TIP3     1084     TIP3     H2       HT       0.417000       1.00800           0
     20491 TIP3     1085     TIP3     OH2      OT      -0.834000       15.9994           0
     20492 TIP3     1085     TIP3     H1       HT       0.417000       1.00800           0
     20493 TIP3     1085     TIP3     H2       HT       0.417000       1.00800           0
     20494 TIP3     1086     TIP3     OH2      OT      -0.834000       15.9994           0
     20495 TIP3     1086     TIP3     H1       HT       0.417000       1.00800           0
     20496 TIP3     1086     TIP3     H2       HT       0.417000       1.00800           0
     20497 TIP3     1087     TIP3     OH2      OT      -0.834000       15.9994           0
     20498 TIP3     1087     TIP3     H1       HT       0.417000       1.00800           0
     20499 TIP3     1087     TIP3     H2       HT       0.417000       1.00800           0
     20500 TIP3     1088     TIP3     OH2      OT      -0.834000       15.9994           0
     20501 TIP3     1088     TIP3     H1       HT       0.417000       1.00800           0
     20502 TIP3     1088     TIP3     H2       HT       0.417000       1.00800           0
     20503 TIP3     1089     TIP3     OH2      OT      -0.834000       15.9994           0
     20504 TIP3     1089     TIP3     H1       HT       0.417000       1.00800           0
     20505 TIP3     1089     TIP3     H2       HT       0.417000       1.00800           0
     20506 TIP3     1090     TIP3     OH2      OT      -0.834000       15.9994           0
     20507 TIP3     1090     TIP3     H1       HT       0.417000       1.00800           0
     20508 TIP3     1090     TIP3     H2       HT       0.417000       1.00800           0
     20509 TIP3     1091     TIP3     OH2      OT      -0.834000       15.9994           0
     20510 TIP3     1091     TIP3     H1       HT       0.417000       1.00800           0
     20511 TIP3     1091     TIP3     H2       HT       0.417000       1.00800           0
     20512 TIP3     1092     TIP3     OH2      OT      -0.834000       15.9994           0
     20513 TIP3     1092     TIP3     H1       HT       0.417000       1.00800           0
     20514 TIP3     1092     TIP3     H2       HT       0.417000       1.00800           0
     20515 TIP3     1093     TIP3     OH2      OT      -0.834000       15.9994           0
     20516 TIP3     1093     TIP3     H1       HT       0.417000       1.00800           0
     20517 TIP3     1093     TIP3     H2       HT       0.417000       1.00800           0
     20518 TIP3     1094     TIP3     OH2      OT      -0.834000       15.9994           0
     20519 TIP3     1094     TIP3     H1       HT       0.417000       1.00800           0
     20520 TIP3     1094     TIP3     H2       HT       0.417000       1.00800           0
     20521 TIP3     1095     TIP3     OH2      OT      -0.834000       15.9994           0
     20522 TIP3     1095     TIP3     H1       HT       0.417000       1.00800           0
     20523 TIP3     1095     TIP3     H2       HT       0.417000       1.00800           0
     20524 TIP3     1096     TIP3     OH2      OT      -0.834000       15.9994           0
     20525 TIP3     1096     TIP3     H1       HT       0.417000       1.00800           0
     20526 TIP3     1096     TIP3     H2       HT       0.417000       1.00800           0
     20527 TIP3     1097     TIP3     OH2      OT      -0.834000       15.9994           0
     20528 TIP3     1097     TIP3     H1       HT       0.417000       1.00800           0
     20529 TIP3     1097     TIP3     H2       HT       0.417000       1.00800           0
     20530 TIP3     1098     TIP3     OH2      OT      -0.834000       15.9994           0
     20531 TIP3     1098     TIP3     H1       HT       0.417000       1.00800           0
     20532 TIP3     1098     TIP3     H2       HT       0.417000       1.00800           0
     20533 TIP3     1099     TIP3     OH2      OT      -0.834000       15.9994           0
     20534 TIP3     1099     TIP3     H1       HT       0.417000       1.00800           0
     20535 TIP3     1099     TIP3     H2       HT       0.417000       1.00800           0
     20536 TIP3     1100     TIP3     OH2      OT      -0.834000       15.9994           0
     20537 TIP3     1100     TIP3     H1       HT       0.417000       1.00800           0
     20538 TIP3     1100     TIP3     H2       HT       0.417000       1.00800           0
     20539 TIP3     1101     TIP3     OH2      OT      -0.834000       15.9994           0
     20540 TIP3     1101     TIP3     H1       HT       0.417000       1.00800           0
     20541 TIP3     1101     TIP3     H2       HT       0.417000       1.00800           0
     20542 TIP3     1102     TIP3     OH2      OT      -0.834000       15.9994           0
     20543 TIP3     1102     TIP3     H1       HT       0.417000       1.00800           0
     20544 TIP3     1102     TIP3     H2       HT       0.417000       1.00800           0
     20545 TIP3     1103     TIP3     OH2      OT      -0.834000       15.9994           0
     20546 TIP3     1103     TIP3     H1       HT       0.417000       1.00800           0
     20547 TIP3     1103     TIP3     H2       HT       0.417000       1.00800           0
     20548 TIP3     1104     TIP3     OH2      OT      -0.834000       15.9994           0
     20549 TIP3     1104     TIP3     H1       HT       0.417000       1.00800           0
     20550 TIP3     1104     TIP3     H2       HT       0.417000       1.00800           0
     20551 TIP3     1105     TIP3     OH2      OT      -0.834000       15.9994           0
     20552 TIP3     1105     TIP3     H1       HT       0.417000       1.00800           0
     20553 TIP3     1105     TIP3     H2       HT       0.417000       1.00800           0
     20554 TIP3     1106     TIP3     OH2      OT      -0.834000       15.9994           0
     20555 TIP3     1106     TIP3     H1       HT       0.417000       1.00800           0
     20556 TIP3     1106     TIP3     H2       HT       0.417000       1.00800           0
     20557 TIP3     1107     TIP3     OH2      OT      -0.834000       15.9994           0
     20558 TIP3     1107     TIP3     H1       HT       0.417000       1.00800           0
     20559 TIP3     1107     TIP3     H2       HT       0.417000       1.00800           0
     20560 TIP3     1108     TIP3     OH2      OT      -0.834000       15.9994           0
     20561 TIP3     1108     TIP3     H1       HT       0.417000       1.00800           0
     20562 TIP3     1108     TIP3     H2       HT       0.417000       1.00800           0
     20563 TIP3     1109     TIP3     OH2      OT      -0.834000       15.9994           0
     20564 TIP3     1109     TIP3     H1       HT       0.417000       1.00800           0
     20565 TIP3     1109     TIP3     H2       HT       0.417000       1.00800           0
     20566 TIP3     1110     TIP3     OH2      OT      -0.834000       15.9994           0
     20567 TIP3     1110     TIP3     H1       HT       0.417000       1.00800           0
     20568 TIP3     1110     TIP3     H2       HT       0.417000       1.00800           0
     20569 TIP3     1111     TIP3     OH2      OT      -0.834000       15.9994           0
     20570 TIP3     1111     TIP3     H1       HT       0.417000       1.00800           0
     20571 TIP3     1111     TIP3     H2       HT       0.417000       1.00800           0
     20572 TIP3     1112     TIP3     OH2      OT      -0.834000       15.9994           0
     20573 TIP3     1112     TIP3     H1       HT       0.417000       1.00800           0
     20574 TIP3     1112     TIP3     H2       HT       0.417000       1.00800           0
     20575 TIP3     1113     TIP3     OH2      OT      -0.834000       15.9994           0
     20576 TIP3     1113     TIP3     H1       HT       0.417000       1.00800           0
     20577 TIP3     1113     TIP3     H2       HT       0.417000       1.00800           0
     20578 TIP3     1114     TIP3     OH2      OT      -0.834000       15.9994           0
     20579 TIP3     1114     TIP3     H1       HT       0.417000       1.00800           0
     20580 TIP3     1114     TIP3     H2       HT       0.417000       1.00800           0
     20581 TIP3     1115     TIP3     OH2      OT      -0.834000       15.9994           0
     20582 TIP3     1115     TIP3     H1       HT       0.417000       1.00800           0
     20583 TIP3     1115     TIP3     H2       HT       0.417000       1.00800           0
     20584 TIP3     1116     TIP3     OH2      OT      -0.834000       15.9994           0
     20585 TIP3     1116     TIP3     H1       HT       0.417000       1.00800           0
     20586 TIP3     1116     TIP3     H2       HT       0.417000       1.00800           0
     20587 TIP3     1117     TIP3     OH2      OT      -0.834000       15.9994           0
     20588 TIP3     1117     TIP3     H1       HT       0.417000       1.00800           0
     20589 TIP3     1117     TIP3     H2       HT       0.417000       1.00800           0
     20590 TIP3     1118     TIP3     OH2      OT      -0.834000       15.9994           0
     20591 TIP3     1118     TIP3     H1       HT       0.417000       1.00800           0
     20592 TIP3     1118     TIP3     H2       HT       0.417000       1.00800           0
     20593 TIP3     1119     TIP3     OH2      OT      -0.834000       15.9994           0
     20594 TIP3     1119     TIP3     H1       HT       0.417000       1.00800           0
     20595 TIP3     1119     TIP3     H2       HT       0.417000       1.00800           0
     20596 TIP3     1120     TIP3     OH2      OT      -0.834000       15.9994           0
     20597 TIP3     1120     TIP3     H1       HT       0.417000       1.00800           0
     20598 TIP3     1120     TIP3     H2       HT       0.417000       1.00800           0
     20599 TIP3     1121     TIP3     OH2      OT      -0.834000       15.9994           0
     20600 TIP3     1121     TIP3     H1       HT       0.417000       1.00800           0
     20601 TIP3     1121     TIP3     H2       HT       0.417000       1.00800           0
     20602 TIP3     1122     TIP3     OH2      OT      -0.834000       15.9994           0
     20603 TIP3     1122     TIP3     H1       HT       0.417000       1.00800           0
     20604 TIP3     1122     TIP3     H2       HT       0.417000       1.00800           0
     20605 TIP3     1123     TIP3     OH2      OT      -0.834000       15.9994           0
     20606 TIP3     1123     TIP3     H1       HT       0.417000       1.00800           0
     20607 TIP3     1123     TIP3     H2       HT       0.417000       1.00800           0
     20608 TIP3     1124     TIP3     OH2      OT      -0.834000       15.9994           0
     20609 TIP3     1124     TIP3     H1       HT       0.417000       1.00800           0
     20610 TIP3     1124     TIP3     H2       HT       0.417000       1.00800           0
     20611 TIP3     1125     TIP3     OH2      OT      -0.834000       15.9994           0
     20612 TIP3     1125     TIP3     H1       HT       0.417000       1.00800           0
     20613 TIP3     1125     TIP3     H2       HT       0.417000       1.00800           0
     20614 TIP3     1126     TIP3     OH2      OT      -0.834000       15.9994           0
     20615 TIP3     1126     TIP3     H1       HT       0.417000       1.00800           0
     20616 TIP3     1126     TIP3     H2       HT       0.417000       1.00800           0
     20617 TIP3     1127     TIP3     OH2      OT      -0.834000       15.9994           0
     20618 TIP3     1127     TIP3     H1       HT       0.417000       1.00800           0
     20619 TIP3     1127     TIP3     H2       HT       0.417000       1.00800           0
     20620 TIP3     1128     TIP3     OH2      OT      -0.834000       15.9994           0
     20621 TIP3     1128     TIP3     H1       HT       0.417000       1.00800           0
     20622 TIP3     1128     TIP3     H2       HT       0.417000       1.00800           0
     20623 TIP3     1129     TIP3     OH2      OT      -0.834000       15.9994           0
     20624 TIP3     1129     TIP3     H1       HT       0.417000       1.00800           0
     20625 TIP3     1129     TIP3     H2       HT       0.417000       1.00800           0
     20626 TIP3     1130     TIP3     OH2      OT      -0.834000       15.9994           0
     20627 TIP3     1130     TIP3     H1       HT       0.417000       1.00800           0
     20628 TIP3     1130     TIP3     H2       HT       0.417000       1.00800           0
     20629 TIP3     1131     TIP3     OH2      OT      -0.834000       15.9994           0
     20630 TIP3     1131     TIP3     H1       HT       0.417000       1.00800           0
     20631 TIP3     1131     TIP3     H2       HT       0.417000       1.00800           0
     20632 TIP3     1132     TIP3     OH2      OT      -0.834000       15.9994           0
     20633 TIP3     1132     TIP3     H1       HT       0.417000       1.00800           0
     20634 TIP3     1132     TIP3     H2       HT       0.417000       1.00800           0
     20635 TIP3     1133     TIP3     OH2      OT      -0.834000       15.9994           0
     20636 TIP3     1133     TIP3     H1       HT       0.417000       1.00800           0
     20637 TIP3     1133     TIP3     H2       HT       0.417000       1.00800           0
     20638 TIP3     1134     TIP3     OH2      OT      -0.834000       15.9994           0
     20639 TIP3     1134     TIP3     H1       HT       0.417000       1.00800           0
     20640 TIP3     1134     TIP3     H2       HT       0.417000       1.00800           0
     20641 TIP3     1135     TIP3     OH2      OT      -0.834000       15.9994           0
     20642 TIP3     1135     TIP3     H1       HT       0.417000       1.00800           0
     20643 TIP3     1135     TIP3     H2       HT       0.417000       1.00800           0
     20644 TIP3     1136     TIP3     OH2      OT      -0.834000       15.9994           0
     20645 TIP3     1136     TIP3     H1       HT       0.417000       1.00800           0
     20646 TIP3     1136     TIP3     H2       HT       0.417000       1.00800           0
     20647 TIP3     1137     TIP3     OH2      OT      -0.834000       15.9994           0
     20648 TIP3     1137     TIP3     H1       HT       0.417000       1.00800           0
     20649 TIP3     1137     TIP3     H2       HT       0.417000       1.00800           0
     20650 TIP3     1138     TIP3     OH2      OT      -0.834000       15.9994           0
     20651 TIP3     1138     TIP3     H1       HT       0.417000       1.00800           0
     20652 TIP3     1138     TIP3     H2       HT       0.417000       1.00800           0
     20653 TIP3     1139     TIP3     OH2      OT      -0.834000       15.9994           0
     20654 TIP3     1139     TIP3     H1       HT       0.417000       1.00800           0
     20655 TIP3     1139     TIP3     H2       HT       0.417000       1.00800           0
     20656 TIP3     1140     TIP3     OH2      OT      -0.834000       15.9994           0
     20657 TIP3     1140     TIP3     H1       HT       0.417000       1.00800           0
     20658 TIP3     1140     TIP3     H2       HT       0.417000       1.00800           0
     20659 TIP3     1141     TIP3     OH2      OT      -0.834000       15.9994           0
     20660 TIP3     1141     TIP3     H1       HT       0.417000       1.00800           0
     20661 TIP3     1141     TIP3     H2       HT       0.417000       1.00800           0
     20662 TIP3     1142     TIP3     OH2      OT      -0.834000       15.9994           0
     20663 TIP3     1142     TIP3     H1       HT       0.417000       1.00800           0
     20664 TIP3     1142     TIP3     H2       HT       0.417000       1.00800           0
     20665 TIP3     1143     TIP3     OH2      OT      -0.834000       15.9994           0
     20666 TIP3     1143     TIP3     H1       HT       0.417000       1.00800           0
     20667 TIP3     1143     TIP3     H2       HT       0.417000       1.00800           0
     20668 TIP3     1144     TIP3     OH2      OT      -0.834000       15.9994           0
     20669 TIP3     1144     TIP3     H1       HT       0.417000       1.00800           0
     20670 TIP3     1144     TIP3     H2       HT       0.417000       1.00800           0
     20671 TIP3     1145     TIP3     OH2      OT      -0.834000       15.9994           0
     20672 TIP3     1145     TIP3     H1       HT       0.417000       1.00800           0
     20673 TIP3     1145     TIP3     H2       HT       0.417000       1.00800           0
     20674 TIP3     1146     TIP3     OH2      OT      -0.834000       15.9994           0
     20675 TIP3     1146     TIP3     H1       HT       0.417000       1.00800           0
     20676 TIP3     1146     TIP3     H2       HT       0.417000       1.00800           0
     20677 TIP3     1147     TIP3     OH2      OT      -0.834000       15.9994           0
     20678 TIP3     1147     TIP3     H1       HT       0.417000       1.00800           0
     20679 TIP3     1147     TIP3     H2       HT       0.417000       1.00800           0
     20680 TIP3     1148     TIP3     OH2      OT      -0.834000       15.9994           0
     20681 TIP3     1148     TIP3     H1       HT       0.417000       1.00800           0
     20682 TIP3     1148     TIP3     H2       HT       0.417000       1.00800           0
     20683 TIP3     1149     TIP3     OH2      OT      -0.834000       15.9994           0
     20684 TIP3     1149     TIP3     H1       HT       0.417000       1.00800           0
     20685 TIP3     1149     TIP3     H2       HT       0.417000       1.00800           0
     20686 TIP3     1150     TIP3     OH2      OT      -0.834000       15.9994           0
     20687 TIP3     1150     TIP3     H1       HT       0.417000       1.00800           0
     20688 TIP3     1150     TIP3     H2       HT       0.417000       1.00800           0
     20689 TIP3     1151     TIP3     OH2      OT      -0.834000       15.9994           0
     20690 TIP3     1151     TIP3     H1       HT       0.417000       1.00800           0
     20691 TIP3     1151     TIP3     H2       HT       0.417000       1.00800           0
     20692 TIP3     1152     TIP3     OH2      OT      -0.834000       15.9994           0
     20693 TIP3     1152     TIP3     H1       HT       0.417000       1.00800           0
     20694 TIP3     1152     TIP3     H2       HT       0.417000       1.00800           0
     20695 TIP3     1153     TIP3     OH2      OT      -0.834000       15.9994           0
     20696 TIP3     1153     TIP3     H1       HT       0.417000       1.00800           0
     20697 TIP3     1153     TIP3     H2       HT       0.417000       1.00800           0
     20698 TIP3     1154     TIP3     OH2      OT      -0.834000       15.9994           0
     20699 TIP3     1154     TIP3     H1       HT       0.417000       1.00800           0
     20700 TIP3     1154     TIP3     H2       HT       0.417000       1.00800           0
     20701 TIP3     1155     TIP3     OH2      OT      -0.834000       15.9994           0
     20702 TIP3     1155     TIP3     H1       HT       0.417000       1.00800           0
     20703 TIP3     1155     TIP3     H2       HT       0.417000       1.00800           0
     20704 TIP3     1156     TIP3     OH2      OT      -0.834000       15.9994           0
     20705 TIP3     1156     TIP3     H1       HT       0.417000       1.00800           0
     20706 TIP3     1156     TIP3     H2       HT       0.417000       1.00800           0
     20707 TIP3     1157     TIP3     OH2      OT      -0.834000       15.9994           0
     20708 TIP3     1157     TIP3     H1       HT       0.417000       1.00800           0
     20709 TIP3     1157     TIP3     H2       HT       0.417000       1.00800           0
     20710 TIP3     1158     TIP3     OH2      OT      -0.834000       15.9994           0
     20711 TIP3     1158     TIP3     H1       HT       0.417000       1.00800           0
     20712 TIP3     1158     TIP3     H2       HT       0.417000       1.00800           0
     20713 TIP3     1159     TIP3     OH2      OT      -0.834000       15.9994           0
     20714 TIP3     1159     TIP3     H1       HT       0.417000       1.00800           0
     20715 TIP3     1159     TIP3     H2       HT       0.417000       1.00800           0
     20716 TIP3     1160     TIP3     OH2      OT      -0.834000       15.9994           0
     20717 TIP3     1160     TIP3     H1       HT       0.417000       1.00800           0
     20718 TIP3     1160     TIP3     H2       HT       0.417000       1.00800           0
     20719 TIP3     1161     TIP3     OH2      OT      -0.834000       15.9994           0
     20720 TIP3     1161     TIP3     H1       HT       0.417000       1.00800           0
     20721 TIP3     1161     TIP3     H2       HT       0.417000       1.00800           0
     20722 TIP3     1162     TIP3     OH2      OT      -0.834000       15.9994           0
     20723 TIP3     1162     TIP3     H1       HT       0.417000       1.00800           0
     20724 TIP3     1162     TIP3     H2       HT       0.417000       1.00800           0
     20725 TIP3     1163     TIP3     OH2      OT      -0.834000       15.9994           0
     20726 TIP3     1163     TIP3     H1       HT       0.417000       1.00800           0
     20727 TIP3     1163     TIP3     H2       HT       0.417000       1.00800           0
     20728 TIP3     1164     TIP3     OH2      OT      -0.834000       15.9994           0
     20729 TIP3     1164     TIP3     H1       HT       0.417000       1.00800           0
     20730 TIP3     1164     TIP3     H2       HT       0.417000       1.00800           0
     20731 TIP3     1165     TIP3     OH2      OT      -0.834000       15.9994           0
     20732 TIP3     1165     TIP3     H1       HT       0.417000       1.00800           0
     20733 TIP3     1165     TIP3     H2       HT       0.417000       1.00800           0
     20734 TIP3     1166     TIP3     OH2      OT      -0.834000       15.9994           0
     20735 TIP3     1166     TIP3     H1       HT       0.417000       1.00800           0
     20736 TIP3     1166     TIP3     H2       HT       0.417000       1.00800           0
     20737 TIP3     1167     TIP3     OH2      OT      -0.834000       15.9994           0
     20738 TIP3     1167     TIP3     H1       HT       0.417000       1.00800           0
     20739 TIP3     1167     TIP3     H2       HT       0.417000       1.00800           0
     20740 TIP3     1168     TIP3     OH2      OT      -0.834000       15.9994           0
     20741 TIP3     1168     TIP3     H1       HT       0.417000       1.00800           0
     20742 TIP3     1168     TIP3     H2       HT       0.417000       1.00800           0
     20743 TIP3     1169     TIP3     OH2      OT      -0.834000       15.9994           0
     20744 TIP3     1169     TIP3     H1       HT       0.417000       1.00800           0
     20745 TIP3     1169     TIP3     H2       HT       0.417000       1.00800           0
     20746 TIP3     1170     TIP3     OH2      OT      -0.834000       15.9994           0
     20747 TIP3     1170     TIP3     H1       HT       0.417000       1.00800           0
     20748 TIP3     1170     TIP3     H2       HT       0.417000       1.00800           0
     20749 TIP3     1171     TIP3     OH2      OT      -0.834000       15.9994           0
     20750 TIP3     1171     TIP3     H1       HT       0.417000       1.00800           0
     20751 TIP3     1171     TIP3     H2       HT       0.417000       1.00800           0
     20752 TIP3     1172     TIP3     OH2      OT      -0.834000       15.9994           0
     20753 TIP3     1172     TIP3     H1       HT       0.417000       1.00800           0
     20754 TIP3     1172     TIP3     H2       HT       0.417000       1.00800           0
     20755 TIP3     1173     TIP3     OH2      OT      -0.834000       15.9994           0
     20756 TIP3     1173     TIP3     H1       HT       0.417000       1.00800           0
     20757 TIP3     1173     TIP3     H2       HT       0.417000       1.00800           0
     20758 TIP3     1174     TIP3     OH2      OT      -0.834000       15.9994           0
     20759 TIP3     1174     TIP3     H1       HT       0.417000       1.00800           0
     20760 TIP3     1174     TIP3     H2       HT       0.417000       1.00800           0
     20761 TIP3     1175     TIP3     OH2      OT      -0.834000       15.9994           0
     20762 TIP3     1175     TIP3     H1       HT       0.417000       1.00800           0
     20763 TIP3     1175     TIP3     H2       HT       0.417000       1.00800           0
     20764 TIP3     1176     TIP3     OH2      OT      -0.834000       15.9994           0
     20765 TIP3     1176     TIP3     H1       HT       0.417000       1.00800           0
     20766 TIP3     1176     TIP3     H2       HT       0.417000       1.00800           0
     20767 TIP3     1177     TIP3     OH2      OT      -0.834000       15.9994           0
     20768 TIP3     1177     TIP3     H1       HT       0.417000       1.00800           0
     20769 TIP3     1177     TIP3     H2       HT       0.417000       1.00800           0
     20770 TIP3     1178     TIP3     OH2      OT      -0.834000       15.9994           0
     20771 TIP3     1178     TIP3     H1       HT       0.417000       1.00800           0
     20772 TIP3     1178     TIP3     H2       HT       0.417000       1.00800           0
     20773 TIP3     1179     TIP3     OH2      OT      -0.834000       15.9994           0
     20774 TIP3     1179     TIP3     H1       HT       0.417000       1.00800           0
     20775 TIP3     1179     TIP3     H2       HT       0.417000       1.00800           0
     20776 TIP3     1180     TIP3     OH2      OT      -0.834000       15.9994           0
     20777 TIP3     1180     TIP3     H1       HT       0.417000       1.00800           0
     20778 TIP3     1180     TIP3     H2       HT       0.417000       1.00800           0
     20779 TIP3     1181     TIP3     OH2      OT      -0.834000       15.9994           0
     20780 TIP3     1181     TIP3     H1       HT       0.417000       1.00800           0
     20781 TIP3     1181     TIP3     H2       HT       0.417000       1.00800           0
     20782 TIP3     1182     TIP3     OH2      OT      -0.834000       15.9994           0
     20783 TIP3     1182     TIP3     H1       HT       0.417000       1.00800           0
     20784 TIP3     1182     TIP3     H2       HT       0.417000       1.00800           0
     20785 TIP3     1183     TIP3     OH2      OT      -0.834000       15.9994           0
     20786 TIP3     1183     TIP3     H1       HT       0.417000       1.00800           0
     20787 TIP3     1183     TIP3     H2       HT       0.417000       1.00800           0
     20788 TIP3     1184     TIP3     OH2      OT      -0.834000       15.9994           0
     20789 TIP3     1184     TIP3     H1       HT       0.417000       1.00800           0
     20790 TIP3     1184     TIP3     H2       HT       0.417000       1.00800           0
     20791 TIP3     1185     TIP3     OH2      OT      -0.834000       15.9994           0
     20792 TIP3     1185     TIP3     H1       HT       0.417000       1.00800           0
     20793 TIP3     1185     TIP3     H2       HT       0.417000       1.00800           0
     20794 TIP3     1186     TIP3     OH2      OT      -0.834000       15.9994           0
     20795 TIP3     1186     TIP3     H1       HT       0.417000       1.00800           0
     20796 TIP3     1186     TIP3     H2       HT       0.417000       1.00800           0
     20797 TIP3     1187     TIP3     OH2      OT      -0.834000       15.9994           0
     20798 TIP3     1187     TIP3     H1       HT       0.417000       1.00800           0
     20799 TIP3     1187     TIP3     H2       HT       0.417000       1.00800           0
     20800 TIP3     1188     TIP3     OH2      OT      -0.834000       15.9994           0
     20801 TIP3     1188     TIP3     H1       HT       0.417000       1.00800           0
     20802 TIP3     1188     TIP3     H2       HT       0.417000       1.00800           0
     20803 TIP3     1189     TIP3     OH2      OT      -0.834000       15.9994           0
     20804 TIP3     1189     TIP3     H1       HT       0.417000       1.00800           0
     20805 TIP3     1189     TIP3     H2       HT       0.417000       1.00800           0
     20806 TIP3     1190     TIP3     OH2      OT      -0.834000       15.9994           0
     20807 TIP3     1190     TIP3     H1       HT       0.417000       1.00800           0
     20808 TIP3     1190     TIP3     H2       HT       0.417000       1.00800           0
     20809 TIP3     1191     TIP3     OH2      OT      -0.834000       15.9994           0
     20810 TIP3     1191     TIP3     H1       HT       0.417000       1.00800           0
     20811 TIP3     1191     TIP3     H2       HT       0.417000       1.00800           0
     20812 TIP3     1192     TIP3     OH2      OT      -0.834000       15.9994           0
     20813 TIP3     1192     TIP3     H1       HT       0.417000       1.00800           0
     20814 TIP3     1192     TIP3     H2       HT       0.417000       1.00800           0
     20815 TIP3     1193     TIP3     OH2      OT      -0.834000       15.9994           0
     20816 TIP3     1193     TIP3     H1       HT       0.417000       1.00800           0
     20817 TIP3     1193     TIP3     H2       HT       0.417000       1.00800           0
     20818 TIP3     1194     TIP3     OH2      OT      -0.834000       15.9994           0
     20819 TIP3     1194     TIP3     H1       HT       0.417000       1.00800           0
     20820 TIP3     1194     TIP3     H2       HT       0.417000       1.00800           0
     20821 TIP3     1195     TIP3     OH2      OT      -0.834000       15.9994           0
     20822 TIP3     1195     TIP3     H1       HT       0.417000       1.00800           0
     20823 TIP3     1195     TIP3     H2       HT       0.417000       1.00800           0
     20824 TIP3     1196     TIP3     OH2      OT      -0.834000       15.9994           0
     20825 TIP3     1196     TIP3     H1       HT       0.417000       1.00800           0
     20826 TIP3     1196     TIP3     H2       HT       0.417000       1.00800           0
     20827 TIP3     1197     TIP3     OH2      OT      -0.834000       15.9994           0
     20828 TIP3     1197     TIP3     H1       HT       0.417000       1.00800           0
     20829 TIP3     1197     TIP3     H2       HT       0.417000       1.00800           0
     20830 TIP3     1198     TIP3     OH2      OT      -0.834000       15.9994           0
     20831 TIP3     1198     TIP3     H1       HT       0.417000       1.00800           0
     20832 TIP3     1198     TIP3     H2       HT       0.417000       1.00800           0
     20833 TIP3     1199     TIP3     OH2      OT      -0.834000       15.9994           0
     20834 TIP3     1199     TIP3     H1       HT       0.417000       1.00800           0
     20835 TIP3     1199     TIP3     H2       HT       0.417000       1.00800           0
     20836 TIP3     1200     TIP3     OH2      OT      -0.834000       15.9994           0
     20837 TIP3     1200     TIP3     H1       HT       0.417000       1.00800           0
     20838 TIP3     1200     TIP3     H2       HT       0.417000       1.00800           0
     20839 TIP3     1201     TIP3     OH2      OT      -0.834000       15.9994           0
     20840 TIP3     1201     TIP3     H1       HT       0.417000       1.00800           0
     20841 TIP3     1201     TIP3     H2       HT       0.417000       1.00800           0
     20842 TIP3     1202     TIP3     OH2      OT      -0.834000       15.9994           0
     20843 TIP3     1202     TIP3     H1       HT       0.417000       1.00800           0
     20844 TIP3     1202     TIP3     H2       HT       0.417000       1.00800           0
     20845 TIP3     1203     TIP3     OH2      OT      -0.834000       15.9994           0
     20846 TIP3     1203     TIP3     H1       HT       0.417000       1.00800           0
     20847 TIP3     1203     TIP3     H2       HT       0.417000       1.00800           0
     20848 TIP3     1204     TIP3     OH2      OT      -0.834000       15.9994           0
     20849 TIP3     1204     TIP3     H1       HT       0.417000       1.00800           0
     20850 TIP3     1204     TIP3     H2       HT       0.417000       1.00800           0
     20851 TIP3     1205     TIP3     OH2      OT      -0.834000       15.9994           0
     20852 TIP3     1205     TIP3     H1       HT       0.417000       1.00800           0
     20853 TIP3     1205     TIP3     H2       HT       0.417000       1.00800           0
     20854 TIP3     1206     TIP3     OH2      OT      -0.834000       15.9994           0
     20855 TIP3     1206     TIP3     H1       HT       0.417000       1.00800           0
     20856 TIP3     1206     TIP3     H2       HT       0.417000       1.00800           0
     20857 TIP3     1207     TIP3     OH2      OT      -0.834000       15.9994           0
     20858 TIP3     1207     TIP3     H1       HT       0.417000       1.00800           0
     20859 TIP3     1207     TIP3     H2       HT       0.417000       1.00800           0
     20860 TIP3     1208     TIP3     OH2      OT      -0.834000       15.9994           0
     20861 TIP3     1208     TIP3     H1       HT       0.417000       1.00800           0
     20862 TIP3     1208     TIP3     H2       HT       0.417000       1.00800           0
     20863 TIP3     1209     TIP3     OH2      OT      -0.834000       15.9994           0
     20864 TIP3     1209     TIP3     H1       HT       0.417000       1.00800           0
     20865 TIP3     1209     TIP3     H2       HT       0.417000       1.00800           0
     20866 TIP3     1210     TIP3     OH2      OT      -0.834000       15.9994           0
     20867 TIP3     1210     TIP3     H1       HT       0.417000       1.00800           0
     20868 TIP3     1210     TIP3     H2       HT       0.417000       1.00800           0
     20869 TIP3     1211     TIP3     OH2      OT      -0.834000       15.9994           0
     20870 TIP3     1211     TIP3     H1       HT       0.417000       1.00800           0
     20871 TIP3     1211     TIP3     H2       HT       0.417000       1.00800           0
     20872 TIP3     1212     TIP3     OH2      OT      -0.834000       15.9994           0
     20873 TIP3     1212     TIP3     H1       HT       0.417000       1.00800           0
     20874 TIP3     1212     TIP3     H2       HT       0.417000       1.00800           0
     20875 TIP3     1213     TIP3     OH2      OT      -0.834000       15.9994           0
     20876 TIP3     1213     TIP3     H1       HT       0.417000       1.00800           0
     20877 TIP3     1213     TIP3     H2       HT       0.417000       1.00800           0
     20878 TIP3     1214     TIP3     OH2      OT      -0.834000       15.9994           0
     20879 TIP3     1214     TIP3     H1       HT       0.417000       1.00800           0
     20880 TIP3     1214     TIP3     H2       HT       0.417000       1.00800           0
     20881 TIP3     1215     TIP3     OH2      OT      -0.834000       15.9994           0
     20882 TIP3     1215     TIP3     H1       HT       0.417000       1.00800           0
     20883 TIP3     1215     TIP3     H2       HT       0.417000       1.00800           0
     20884 TIP3     1216     TIP3     OH2      OT      -0.834000       15.9994           0
     20885 TIP3     1216     TIP3     H1       HT       0.417000       1.00800           0
     20886 TIP3     1216     TIP3     H2       HT       0.417000       1.00800           0
     20887 TIP3     1217     TIP3     OH2      OT      -0.834000       15.9994           0
     20888 TIP3     1217     TIP3     H1       HT       0.417000       1.00800           0
     20889 TIP3     1217     TIP3     H2       HT       0.417000       1.00800           0
     20890 TIP3     1218     TIP3     OH2      OT      -0.834000       15.9994           0
     20891 TIP3     1218     TIP3     H1       HT       0.417000       1.00800           0
     20892 TIP3     1218     TIP3     H2       HT       0.417000       1.00800           0
     20893 TIP3     1219     TIP3     OH2      OT      -0.834000       15.9994           0
     20894 TIP3     1219     TIP3     H1       HT       0.417000       1.00800           0
     20895 TIP3     1219     TIP3     H2       HT       0.417000       1.00800           0
     20896 TIP3     1220     TIP3     OH2      OT      -0.834000       15.9994           0
     20897 TIP3     1220     TIP3     H1       HT       0.417000       1.00800           0
     20898 TIP3     1220     TIP3     H2       HT       0.417000       1.00800           0
     20899 TIP3     1221     TIP3     OH2      OT      -0.834000       15.9994           0
     20900 TIP3     1221     TIP3     H1       HT       0.417000       1.00800           0
     20901 TIP3     1221     TIP3     H2       HT       0.417000       1.00800           0
     20902 TIP3     1222     TIP3     OH2      OT      -0.834000       15.9994           0
     20903 TIP3     1222     TIP3     H1       HT       0.417000       1.00800           0
     20904 TIP3     1222     TIP3     H2       HT       0.417000       1.00800           0
     20905 TIP3     1223     TIP3     OH2      OT      -0.834000       15.9994           0
     20906 TIP3     1223     TIP3     H1       HT       0.417000       1.00800           0
     20907 TIP3     1223     TIP3     H2       HT       0.417000       1.00800           0
     20908 TIP3     1224     TIP3     OH2      OT      -0.834000       15.9994           0
     20909 TIP3     1224     TIP3     H1       HT       0.417000       1.00800           0
     20910 TIP3     1224     TIP3     H2       HT       0.417000       1.00800           0
     20911 TIP3     1225     TIP3     OH2      OT      -0.834000       15.9994           0
     20912 TIP3     1225     TIP3     H1       HT       0.417000       1.00800           0
     20913 TIP3     1225     TIP3     H2       HT       0.417000       1.00800           0
     20914 TIP3     1226     TIP3     OH2      OT      -0.834000       15.9994           0
     20915 TIP3     1226     TIP3     H1       HT       0.417000       1.00800           0
     20916 TIP3     1226     TIP3     H2       HT       0.417000       1.00800           0
     20917 TIP3     1227     TIP3     OH2      OT      -0.834000       15.9994           0
     20918 TIP3     1227     TIP3     H1       HT       0.417000       1.00800           0
     20919 TIP3     1227     TIP3     H2       HT       0.417000       1.00800           0
     20920 TIP3     1228     TIP3     OH2      OT      -0.834000       15.9994           0
     20921 TIP3     1228     TIP3     H1       HT       0.417000       1.00800           0
     20922 TIP3     1228     TIP3     H2       HT       0.417000       1.00800           0
     20923 TIP3     1229     TIP3     OH2      OT      -0.834000       15.9994           0
     20924 TIP3     1229     TIP3     H1       HT       0.417000       1.00800           0
     20925 TIP3     1229     TIP3     H2       HT       0.417000       1.00800           0
     20926 TIP3     1230     TIP3     OH2      OT      -0.834000       15.9994           0
     20927 TIP3     1230     TIP3     H1       HT       0.417000       1.00800           0
     20928 TIP3     1230     TIP3     H2       HT       0.417000       1.00800           0
     20929 TIP3     1231     TIP3     OH2      OT      -0.834000       15.9994           0
     20930 TIP3     1231     TIP3     H1       HT       0.417000       1.00800           0
     20931 TIP3     1231     TIP3     H2       HT       0.417000       1.00800           0
     20932 TIP3     1232     TIP3     OH2      OT      -0.834000       15.9994           0
     20933 TIP3     1232     TIP3     H1       HT       0.417000       1.00800           0
     20934 TIP3     1232     TIP3     H2       HT       0.417000       1.00800           0
     20935 TIP3     1233     TIP3     OH2      OT      -0.834000       15.9994           0
     20936 TIP3     1233     TIP3     H1       HT       0.417000       1.00800           0
     20937 TIP3     1233     TIP3     H2       HT       0.417000       1.00800           0
     20938 TIP3     1234     TIP3     OH2      OT      -0.834000       15.9994           0
     20939 TIP3     1234     TIP3     H1       HT       0.417000       1.00800           0
     20940 TIP3     1234     TIP3     H2       HT       0.417000       1.00800           0
     20941 TIP3     1235     TIP3     OH2      OT      -0.834000       15.9994           0
     20942 TIP3     1235     TIP3     H1       HT       0.417000       1.00800           0
     20943 TIP3     1235     TIP3     H2       HT       0.417000       1.00800           0
     20944 TIP3     1236     TIP3     OH2      OT      -0.834000       15.9994           0
     20945 TIP3     1236     TIP3     H1       HT       0.417000       1.00800           0
     20946 TIP3     1236     TIP3     H2       HT       0.417000       1.00800           0
     20947 TIP3     1237     TIP3     OH2      OT      -0.834000       15.9994           0
     20948 TIP3     1237     TIP3     H1       HT       0.417000       1.00800           0
     20949 TIP3     1237     TIP3     H2       HT       0.417000       1.00800           0
     20950 TIP3     1238     TIP3     OH2      OT      -0.834000       15.9994           0
     20951 TIP3     1238     TIP3     H1       HT       0.417000       1.00800           0
     20952 TIP3     1238     TIP3     H2       HT       0.417000       1.00800           0
     20953 TIP3     1239     TIP3     OH2      OT      -0.834000       15.9994           0
     20954 TIP3     1239     TIP3     H1       HT       0.417000       1.00800           0
     20955 TIP3     1239     TIP3     H2       HT       0.417000       1.00800           0
     20956 TIP3     1240     TIP3     OH2      OT      -0.834000       15.9994           0
     20957 TIP3     1240     TIP3     H1       HT       0.417000       1.00800           0
     20958 TIP3     1240     TIP3     H2       HT       0.417000       1.00800           0
     20959 TIP3     1241     TIP3     OH2      OT      -0.834000       15.9994           0
     20960 TIP3     1241     TIP3     H1       HT       0.417000       1.00800           0
     20961 TIP3     1241     TIP3     H2       HT       0.417000       1.00800           0
     20962 TIP3     1242     TIP3     OH2      OT      -0.834000       15.9994           0
     20963 TIP3     1242     TIP3     H1       HT       0.417000       1.00800           0
     20964 TIP3     1242     TIP3     H2       HT       0.417000       1.00800           0
     20965 TIP3     1243     TIP3     OH2      OT      -0.834000       15.9994           0
     20966 TIP3     1243     TIP3     H1       HT       0.417000       1.00800           0
     20967 TIP3     1243     TIP3     H2       HT       0.417000       1.00800           0
     20968 TIP3     1244     TIP3     OH2      OT      -0.834000       15.9994           0
     20969 TIP3     1244     TIP3     H1       HT       0.417000       1.00800           0
     20970 TIP3     1244     TIP3     H2       HT       0.417000       1.00800           0
     20971 TIP3     1245     TIP3     OH2      OT      -0.834000       15.9994           0
     20972 TIP3     1245     TIP3     H1       HT       0.417000       1.00800           0
     20973 TIP3     1245     TIP3     H2       HT       0.417000       1.00800           0
     20974 TIP3     1246     TIP3     OH2      OT      -0.834000       15.9994           0
     20975 TIP3     1246     TIP3     H1       HT       0.417000       1.00800           0
     20976 TIP3     1246     TIP3     H2       HT       0.417000       1.00800           0
     20977 TIP3     1247     TIP3     OH2      OT      -0.834000       15.9994           0
     20978 TIP3     1247     TIP3     H1       HT       0.417000       1.00800           0
     20979 TIP3     1247     TIP3     H2       HT       0.417000       1.00800           0
     20980 TIP3     1248     TIP3     OH2      OT      -0.834000       15.9994           0
     20981 TIP3     1248     TIP3     H1       HT       0.417000       1.00800           0
     20982 TIP3     1248     TIP3     H2       HT       0.417000       1.00800           0
     20983 TIP3     1249     TIP3     OH2      OT      -0.834000       15.9994           0
     20984 TIP3     1249     TIP3     H1       HT       0.417000       1.00800           0
     20985 TIP3     1249     TIP3     H2       HT       0.417000       1.00800           0
     20986 TIP3     1250     TIP3     OH2      OT      -0.834000       15.9994           0
     20987 TIP3     1250     TIP3     H1       HT       0.417000       1.00800           0
     20988 TIP3     1250     TIP3     H2       HT       0.417000       1.00800           0
     20989 TIP3     1251     TIP3     OH2      OT      -0.834000       15.9994           0
     20990 TIP3     1251     TIP3     H1       HT       0.417000       1.00800           0
     20991 TIP3     1251     TIP3     H2       HT       0.417000       1.00800           0
     20992 TIP3     1252     TIP3     OH2      OT      -0.834000       15.9994           0
     20993 TIP3     1252     TIP3     H1       HT       0.417000       1.00800           0
     20994 TIP3     1252     TIP3     H2       HT       0.417000       1.00800           0
     20995 TIP3     1253     TIP3     OH2      OT      -0.834000       15.9994           0
     20996 TIP3     1253     TIP3     H1       HT       0.417000       1.00800           0
     20997 TIP3     1253     TIP3     H2       HT       0.417000       1.00800           0
     20998 TIP3     1254     TIP3     OH2      OT      -0.834000       15.9994           0
     20999 TIP3     1254     TIP3     H1       HT       0.417000       1.00800           0
     21000 TIP3     1254     TIP3     H2       HT       0.417000       1.00800           0
     21001 TIP3     1255     TIP3     OH2      OT      -0.834000       15.9994           0
     21002 TIP3     1255     TIP3     H1       HT       0.417000       1.00800           0
     21003 TIP3     1255     TIP3     H2       HT       0.417000       1.00800           0
     21004 TIP3     1256     TIP3     OH2      OT      -0.834000       15.9994           0
     21005 TIP3     1256     TIP3     H1       HT       0.417000       1.00800           0
     21006 TIP3     1256     TIP3     H2       HT       0.417000       1.00800           0
     21007 TIP3     1257     TIP3     OH2      OT      -0.834000       15.9994           0
     21008 TIP3     1257     TIP3     H1       HT       0.417000       1.00800           0
     21009 TIP3     1257     TIP3     H2       HT       0.417000       1.00800           0
     21010 TIP3     1258     TIP3     OH2      OT      -0.834000       15.9994           0
     21011 TIP3     1258     TIP3     H1       HT       0.417000       1.00800           0
     21012 TIP3     1258     TIP3     H2       HT       0.417000       1.00800           0
     21013 TIP3     1259     TIP3     OH2      OT      -0.834000       15.9994           0
     21014 TIP3     1259     TIP3     H1       HT       0.417000       1.00800           0
     21015 TIP3     1259     TIP3     H2       HT       0.417000       1.00800           0
     21016 TIP3     1260     TIP3     OH2      OT      -0.834000       15.9994           0
     21017 TIP3     1260     TIP3     H1       HT       0.417000       1.00800           0
     21018 TIP3     1260     TIP3     H2       HT       0.417000       1.00800           0
     21019 TIP3     1261     TIP3     OH2      OT      -0.834000       15.9994           0
     21020 TIP3     1261     TIP3     H1       HT       0.417000       1.00800           0
     21021 TIP3     1261     TIP3     H2       HT       0.417000       1.00800           0
     21022 TIP3     1262     TIP3     OH2      OT      -0.834000       15.9994           0
     21023 TIP3     1262     TIP3     H1       HT       0.417000       1.00800           0
     21024 TIP3     1262     TIP3     H2       HT       0.417000       1.00800           0
     21025 TIP3     1263     TIP3     OH2      OT      -0.834000       15.9994           0
     21026 TIP3     1263     TIP3     H1       HT       0.417000       1.00800           0
     21027 TIP3     1263     TIP3     H2       HT       0.417000       1.00800           0
     21028 TIP3     1264     TIP3     OH2      OT      -0.834000       15.9994           0
     21029 TIP3     1264     TIP3     H1       HT       0.417000       1.00800           0
     21030 TIP3     1264     TIP3     H2       HT       0.417000       1.00800           0
     21031 TIP3     1265     TIP3     OH2      OT      -0.834000       15.9994           0
     21032 TIP3     1265     TIP3     H1       HT       0.417000       1.00800           0
     21033 TIP3     1265     TIP3     H2       HT       0.417000       1.00800           0
     21034 TIP3     1266     TIP3     OH2      OT      -0.834000       15.9994           0
     21035 TIP3     1266     TIP3     H1       HT       0.417000       1.00800           0
     21036 TIP3     1266     TIP3     H2       HT       0.417000       1.00800           0
     21037 TIP3     1267     TIP3     OH2      OT      -0.834000       15.9994           0
     21038 TIP3     1267     TIP3     H1       HT       0.417000       1.00800           0
     21039 TIP3     1267     TIP3     H2       HT       0.417000       1.00800           0
     21040 TIP3     1268     TIP3     OH2      OT      -0.834000       15.9994           0
     21041 TIP3     1268     TIP3     H1       HT       0.417000       1.00800           0
     21042 TIP3     1268     TIP3     H2       HT       0.417000       1.00800           0
     21043 TIP3     1269     TIP3     OH2      OT      -0.834000       15.9994           0
     21044 TIP3     1269     TIP3     H1       HT       0.417000       1.00800           0
     21045 TIP3     1269     TIP3     H2       HT       0.417000       1.00800           0
     21046 TIP3     1270     TIP3     OH2      OT      -0.834000       15.9994           0
     21047 TIP3     1270     TIP3     H1       HT       0.417000       1.00800           0
     21048 TIP3     1270     TIP3     H2       HT       0.417000       1.00800           0
     21049 TIP3     1271     TIP3     OH2      OT      -0.834000       15.9994           0
     21050 TIP3     1271     TIP3     H1       HT       0.417000       1.00800           0
     21051 TIP3     1271     TIP3     H2       HT       0.417000       1.00800           0
     21052 TIP3     1272     TIP3     OH2      OT      -0.834000       15.9994           0
     21053 TIP3     1272     TIP3     H1       HT       0.417000       1.00800           0
     21054 TIP3     1272     TIP3     H2       HT       0.417000       1.00800           0
     21055 TIP3     1273     TIP3     OH2      OT      -0.834000       15.9994           0
     21056 TIP3     1273     TIP3     H1       HT       0.417000       1.00800           0
     21057 TIP3     1273     TIP3     H2       HT       0.417000       1.00800           0
     21058 TIP3     1274     TIP3     OH2      OT      -0.834000       15.9994           0
     21059 TIP3     1274     TIP3     H1       HT       0.417000       1.00800           0
     21060 TIP3     1274     TIP3     H2       HT       0.417000       1.00800           0
     21061 TIP3     1275     TIP3     OH2      OT      -0.834000       15.9994           0
     21062 TIP3     1275     TIP3     H1       HT       0.417000       1.00800           0
     21063 TIP3     1275     TIP3     H2       HT       0.417000       1.00800           0
     21064 TIP3     1276     TIP3     OH2      OT      -0.834000       15.9994           0
     21065 TIP3     1276     TIP3     H1       HT       0.417000       1.00800           0
     21066 TIP3     1276     TIP3     H2       HT       0.417000       1.00800           0
     21067 TIP3     1277     TIP3     OH2      OT      -0.834000       15.9994           0
     21068 TIP3     1277     TIP3     H1       HT       0.417000       1.00800           0
     21069 TIP3     1277     TIP3     H2       HT       0.417000       1.00800           0
     21070 TIP3     1278     TIP3     OH2      OT      -0.834000       15.9994           0
     21071 TIP3     1278     TIP3     H1       HT       0.417000       1.00800           0
     21072 TIP3     1278     TIP3     H2       HT       0.417000       1.00800           0
     21073 TIP3     1279     TIP3     OH2      OT      -0.834000       15.9994           0
     21074 TIP3     1279     TIP3     H1       HT       0.417000       1.00800           0
     21075 TIP3     1279     TIP3     H2       HT       0.417000       1.00800           0
     21076 TIP3     1280     TIP3     OH2      OT      -0.834000       15.9994           0
     21077 TIP3     1280     TIP3     H1       HT       0.417000       1.00800           0
     21078 TIP3     1280     TIP3     H2       HT       0.417000       1.00800           0
     21079 TIP3     1281     TIP3     OH2      OT      -0.834000       15.9994           0
     21080 TIP3     1281     TIP3     H1       HT       0.417000       1.00800           0
     21081 TIP3     1281     TIP3     H2       HT       0.417000       1.00800           0
     21082 TIP3     1282     TIP3     OH2      OT      -0.834000       15.9994           0
     21083 TIP3     1282     TIP3     H1       HT       0.417000       1.00800           0
     21084 TIP3     1282     TIP3     H2       HT       0.417000       1.00800           0
     21085 TIP3     1283     TIP3     OH2      OT      -0.834000       15.9994           0
     21086 TIP3     1283     TIP3     H1       HT       0.417000       1.00800           0
     21087 TIP3     1283     TIP3     H2       HT       0.417000       1.00800           0
     21088 TIP3     1284     TIP3     OH2      OT      -0.834000       15.9994           0
     21089 TIP3     1284     TIP3     H1       HT       0.417000       1.00800           0
     21090 TIP3     1284     TIP3     H2       HT       0.417000       1.00800           0
     21091 TIP3     1285     TIP3     OH2      OT      -0.834000       15.9994           0
     21092 TIP3     1285     TIP3     H1       HT       0.417000       1.00800           0
     21093 TIP3     1285     TIP3     H2       HT       0.417000       1.00800           0
     21094 TIP3     1286     TIP3     OH2      OT      -0.834000       15.9994           0
     21095 TIP3     1286     TIP3     H1       HT       0.417000       1.00800           0
     21096 TIP3     1286     TIP3     H2       HT       0.417000       1.00800           0
     21097 TIP3     1287     TIP3     OH2      OT      -0.834000       15.9994           0
     21098 TIP3     1287     TIP3     H1       HT       0.417000       1.00800           0
     21099 TIP3     1287     TIP3     H2       HT       0.417000       1.00800           0
     21100 TIP3     1288     TIP3     OH2      OT      -0.834000       15.9994           0
     21101 TIP3     1288     TIP3     H1       HT       0.417000       1.00800           0
     21102 TIP3     1288     TIP3     H2       HT       0.417000       1.00800           0
     21103 TIP3     1289     TIP3     OH2      OT      -0.834000       15.9994           0
     21104 TIP3     1289     TIP3     H1       HT       0.417000       1.00800           0
     21105 TIP3     1289     TIP3     H2       HT       0.417000       1.00800           0
     21106 TIP3     1290     TIP3     OH2      OT      -0.834000       15.9994           0
     21107 TIP3     1290     TIP3     H1       HT       0.417000       1.00800           0
     21108 TIP3     1290     TIP3     H2       HT       0.417000       1.00800           0
     21109 TIP3     1291     TIP3     OH2      OT      -0.834000       15.9994           0
     21110 TIP3     1291     TIP3     H1       HT       0.417000       1.00800           0
     21111 TIP3     1291     TIP3     H2       HT       0.417000       1.00800           0
     21112 TIP3     1292     TIP3     OH2      OT      -0.834000       15.9994           0
     21113 TIP3     1292     TIP3     H1       HT       0.417000       1.00800           0
     21114 TIP3     1292     TIP3     H2       HT       0.417000       1.00800           0
     21115 TIP3     1293     TIP3     OH2      OT      -0.834000       15.9994           0
     21116 TIP3     1293     TIP3     H1       HT       0.417000       1.00800           0
     21117 TIP3     1293     TIP3     H2       HT       0.417000       1.00800           0
     21118 TIP3     1294     TIP3     OH2      OT      -0.834000       15.9994           0
     21119 TIP3     1294     TIP3     H1       HT       0.417000       1.00800           0
     21120 TIP3     1294     TIP3     H2       HT       0.417000       1.00800           0
     21121 TIP3     1295     TIP3     OH2      OT      -0.834000       15.9994           0
     21122 TIP3     1295     TIP3     H1       HT       0.417000       1.00800           0
     21123 TIP3     1295     TIP3     H2       HT       0.417000       1.00800           0
     21124 TIP3     1296     TIP3     OH2      OT      -0.834000       15.9994           0
     21125 TIP3     1296     TIP3     H1       HT       0.417000       1.00800           0
     21126 TIP3     1296     TIP3     H2       HT       0.417000       1.00800           0
     21127 TIP3     1297     TIP3     OH2      OT      -0.834000       15.9994           0
     21128 TIP3     1297     TIP3     H1       HT       0.417000       1.00800           0
     21129 TIP3     1297     TIP3     H2       HT       0.417000       1.00800           0
     21130 TIP3     1298     TIP3     OH2      OT      -0.834000       15.9994           0
     21131 TIP3     1298     TIP3     H1       HT       0.417000       1.00800           0
     21132 TIP3     1298     TIP3     H2       HT       0.417000       1.00800           0
     21133 TIP3     1299     TIP3     OH2      OT      -0.834000       15.9994           0
     21134 TIP3     1299     TIP3     H1       HT       0.417000       1.00800           0
     21135 TIP3     1299     TIP3     H2       HT       0.417000       1.00800           0
     21136 TIP3     1300     TIP3     OH2      OT      -0.834000       15.9994           0
     21137 TIP3     1300     TIP3     H1       HT       0.417000       1.00800           0
     21138 TIP3     1300     TIP3     H2       HT       0.417000       1.00800           0
     21139 TIP3     1301     TIP3     OH2      OT      -0.834000       15.9994           0
     21140 TIP3     1301     TIP3     H1       HT       0.417000       1.00800           0
     21141 TIP3     1301     TIP3     H2       HT       0.417000       1.00800           0
     21142 TIP3     1302     TIP3     OH2      OT      -0.834000       15.9994           0
     21143 TIP3     1302     TIP3     H1       HT       0.417000       1.00800           0
     21144 TIP3     1302     TIP3     H2       HT       0.417000       1.00800           0
     21145 TIP3     1303     TIP3     OH2      OT      -0.834000       15.9994           0
     21146 TIP3     1303     TIP3     H1       HT       0.417000       1.00800           0
     21147 TIP3     1303     TIP3     H2       HT       0.417000       1.00800           0
     21148 TIP3     1304     TIP3     OH2      OT      -0.834000       15.9994           0
     21149 TIP3     1304     TIP3     H1       HT       0.417000       1.00800           0
     21150 TIP3     1304     TIP3     H2       HT       0.417000       1.00800           0
     21151 TIP3     1305     TIP3     OH2      OT      -0.834000       15.9994           0
     21152 TIP3     1305     TIP3     H1       HT       0.417000       1.00800           0
     21153 TIP3     1305     TIP3     H2       HT       0.417000       1.00800           0
     21154 TIP3     1306     TIP3     OH2      OT      -0.834000       15.9994           0
     21155 TIP3     1306     TIP3     H1       HT       0.417000       1.00800           0
     21156 TIP3     1306     TIP3     H2       HT       0.417000       1.00800           0
     21157 TIP3     1307     TIP3     OH2      OT      -0.834000       15.9994           0
     21158 TIP3     1307     TIP3     H1       HT       0.417000       1.00800           0
     21159 TIP3     1307     TIP3     H2       HT       0.417000       1.00800           0
     21160 TIP3     1308     TIP3     OH2      OT      -0.834000       15.9994           0
     21161 TIP3     1308     TIP3     H1       HT       0.417000       1.00800           0
     21162 TIP3     1308     TIP3     H2       HT       0.417000       1.00800           0
     21163 TIP3     1309     TIP3     OH2      OT      -0.834000       15.9994           0
     21164 TIP3     1309     TIP3     H1       HT       0.417000       1.00800           0
     21165 TIP3     1309     TIP3     H2       HT       0.417000       1.00800           0
     21166 TIP3     1310     TIP3     OH2      OT      -0.834000       15.9994           0
     21167 TIP3     1310     TIP3     H1       HT       0.417000       1.00800           0
     21168 TIP3     1310     TIP3     H2       HT       0.417000       1.00800           0
     21169 TIP3     1311     TIP3     OH2      OT      -0.834000       15.9994           0
     21170 TIP3     1311     TIP3     H1       HT       0.417000       1.00800           0
     21171 TIP3     1311     TIP3     H2       HT       0.417000       1.00800           0
     21172 TIP3     1312     TIP3     OH2      OT      -0.834000       15.9994           0
     21173 TIP3     1312     TIP3     H1       HT       0.417000       1.00800           0
     21174 TIP3     1312     TIP3     H2       HT       0.417000       1.00800           0
     21175 TIP3     1313     TIP3     OH2      OT      -0.834000       15.9994           0
     21176 TIP3     1313     TIP3     H1       HT       0.417000       1.00800           0
     21177 TIP3     1313     TIP3     H2       HT       0.417000       1.00800           0
     21178 TIP3     1314     TIP3     OH2      OT      -0.834000       15.9994           0
     21179 TIP3     1314     TIP3     H1       HT       0.417000       1.00800           0
     21180 TIP3     1314     TIP3     H2       HT       0.417000       1.00800           0
     21181 TIP3     1315     TIP3     OH2      OT      -0.834000       15.9994           0
     21182 TIP3     1315     TIP3     H1       HT       0.417000       1.00800           0
     21183 TIP3     1315     TIP3     H2       HT       0.417000       1.00800           0
     21184 TIP3     1316     TIP3     OH2      OT      -0.834000       15.9994           0
     21185 TIP3     1316     TIP3     H1       HT       0.417000       1.00800           0
     21186 TIP3     1316     TIP3     H2       HT       0.417000       1.00800           0
     21187 TIP3     1317     TIP3     OH2      OT      -0.834000       15.9994           0
     21188 TIP3     1317     TIP3     H1       HT       0.417000       1.00800           0
     21189 TIP3     1317     TIP3     H2       HT       0.417000       1.00800           0
     21190 TIP3     1318     TIP3     OH2      OT      -0.834000       15.9994           0
     21191 TIP3     1318     TIP3     H1       HT       0.417000       1.00800           0
     21192 TIP3     1318     TIP3     H2       HT       0.417000       1.00800           0
     21193 TIP3     1319     TIP3     OH2      OT      -0.834000       15.9994           0
     21194 TIP3     1319     TIP3     H1       HT       0.417000       1.00800           0
     21195 TIP3     1319     TIP3     H2       HT       0.417000       1.00800           0
     21196 TIP3     1320     TIP3     OH2      OT      -0.834000       15.9994           0
     21197 TIP3     1320     TIP3     H1       HT       0.417000       1.00800           0
     21198 TIP3     1320     TIP3     H2       HT       0.417000       1.00800           0
     21199 TIP3     1321     TIP3     OH2      OT      -0.834000       15.9994           0
     21200 TIP3     1321     TIP3     H1       HT       0.417000       1.00800           0
     21201 TIP3     1321     TIP3     H2       HT       0.417000       1.00800           0
     21202 TIP3     1322     TIP3     OH2      OT      -0.834000       15.9994           0
     21203 TIP3     1322     TIP3     H1       HT       0.417000       1.00800           0
     21204 TIP3     1322     TIP3     H2       HT       0.417000       1.00800           0
     21205 TIP3     1323     TIP3     OH2      OT      -0.834000       15.9994           0
     21206 TIP3     1323     TIP3     H1       HT       0.417000       1.00800           0
     21207 TIP3     1323     TIP3     H2       HT       0.417000       1.00800           0
     21208 TIP3     1324     TIP3     OH2      OT      -0.834000       15.9994           0
     21209 TIP3     1324     TIP3     H1       HT       0.417000       1.00800           0
     21210 TIP3     1324     TIP3     H2       HT       0.417000       1.00800           0
     21211 TIP3     1325     TIP3     OH2      OT      -0.834000       15.9994           0
     21212 TIP3     1325     TIP3     H1       HT       0.417000       1.00800           0
     21213 TIP3     1325     TIP3     H2       HT       0.417000       1.00800           0
     21214 TIP3     1326     TIP3     OH2      OT      -0.834000       15.9994           0
     21215 TIP3     1326     TIP3     H1       HT       0.417000       1.00800           0
     21216 TIP3     1326     TIP3     H2       HT       0.417000       1.00800           0
     21217 TIP3     1327     TIP3     OH2      OT      -0.834000       15.9994           0
     21218 TIP3     1327     TIP3     H1       HT       0.417000       1.00800           0
     21219 TIP3     1327     TIP3     H2       HT       0.417000       1.00800           0
     21220 TIP3     1328     TIP3     OH2      OT      -0.834000       15.9994           0
     21221 TIP3     1328     TIP3     H1       HT       0.417000       1.00800           0
     21222 TIP3     1328     TIP3     H2       HT       0.417000       1.00800           0
     21223 TIP3     1329     TIP3     OH2      OT      -0.834000       15.9994           0
     21224 TIP3     1329     TIP3     H1       HT       0.417000       1.00800           0
     21225 TIP3     1329     TIP3     H2       HT       0.417000       1.00800           0
     21226 TIP3     1330     TIP3     OH2      OT      -0.834000       15.9994           0
     21227 TIP3     1330     TIP3     H1       HT       0.417000       1.00800           0
     21228 TIP3     1330     TIP3     H2       HT       0.417000       1.00800           0
     21229 TIP3     1331     TIP3     OH2      OT      -0.834000       15.9994           0
     21230 TIP3     1331     TIP3     H1       HT       0.417000       1.00800           0
     21231 TIP3     1331     TIP3     H2       HT       0.417000       1.00800           0
     21232 TIP3     1332     TIP3     OH2      OT      -0.834000       15.9994           0
     21233 TIP3     1332     TIP3     H1       HT       0.417000       1.00800           0
     21234 TIP3     1332     TIP3     H2       HT       0.417000       1.00800           0
     21235 TIP3     1333     TIP3     OH2      OT      -0.834000       15.9994           0
     21236 TIP3     1333     TIP3     H1       HT       0.417000       1.00800           0
     21237 TIP3     1333     TIP3     H2       HT       0.417000       1.00800           0
     21238 TIP3     1334     TIP3     OH2      OT      -0.834000       15.9994           0
     21239 TIP3     1334     TIP3     H1       HT       0.417000       1.00800           0
     21240 TIP3     1334     TIP3     H2       HT       0.417000       1.00800           0
     21241 TIP3     1335     TIP3     OH2      OT      -0.834000       15.9994           0
     21242 TIP3     1335     TIP3     H1       HT       0.417000       1.00800           0
     21243 TIP3     1335     TIP3     H2       HT       0.417000       1.00800           0
     21244 TIP3     1336     TIP3     OH2      OT      -0.834000       15.9994           0
     21245 TIP3     1336     TIP3     H1       HT       0.417000       1.00800           0
     21246 TIP3     1336     TIP3     H2       HT       0.417000       1.00800           0
     21247 TIP3     1337     TIP3     OH2      OT      -0.834000       15.9994           0
     21248 TIP3     1337     TIP3     H1       HT       0.417000       1.00800           0
     21249 TIP3     1337     TIP3     H2       HT       0.417000       1.00800           0
     21250 TIP3     1338     TIP3     OH2      OT      -0.834000       15.9994           0
     21251 TIP3     1338     TIP3     H1       HT       0.417000       1.00800           0
     21252 TIP3     1338     TIP3     H2       HT       0.417000       1.00800           0
     21253 TIP3     1339     TIP3     OH2      OT      -0.834000       15.9994           0
     21254 TIP3     1339     TIP3     H1       HT       0.417000       1.00800           0
     21255 TIP3     1339     TIP3     H2       HT       0.417000       1.00800           0
     21256 TIP3     1340     TIP3     OH2      OT      -0.834000       15.9994           0
     21257 TIP3     1340     TIP3     H1       HT       0.417000       1.00800           0
     21258 TIP3     1340     TIP3     H2       HT       0.417000       1.00800           0
     21259 TIP3     1341     TIP3     OH2      OT      -0.834000       15.9994           0
     21260 TIP3     1341     TIP3     H1       HT       0.417000       1.00800           0
     21261 TIP3     1341     TIP3     H2       HT       0.417000       1.00800           0
     21262 TIP3     1342     TIP3     OH2      OT      -0.834000       15.9994           0
     21263 TIP3     1342     TIP3     H1       HT       0.417000       1.00800           0
     21264 TIP3     1342     TIP3     H2       HT       0.417000       1.00800           0
     21265 TIP3     1343     TIP3     OH2      OT      -0.834000       15.9994           0
     21266 TIP3     1343     TIP3     H1       HT       0.417000       1.00800           0
     21267 TIP3     1343     TIP3     H2       HT       0.417000       1.00800           0
     21268 TIP3     1344     TIP3     OH2      OT      -0.834000       15.9994           0
     21269 TIP3     1344     TIP3     H1       HT       0.417000       1.00800           0
     21270 TIP3     1344     TIP3     H2       HT       0.417000       1.00800           0
     21271 TIP3     1345     TIP3     OH2      OT      -0.834000       15.9994           0
     21272 TIP3     1345     TIP3     H1       HT       0.417000       1.00800           0
     21273 TIP3     1345     TIP3     H2       HT       0.417000       1.00800           0
     21274 TIP3     1346     TIP3     OH2      OT      -0.834000       15.9994           0
     21275 TIP3     1346     TIP3     H1       HT       0.417000       1.00800           0
     21276 TIP3     1346     TIP3     H2       HT       0.417000       1.00800           0
     21277 TIP3     1347     TIP3     OH2      OT      -0.834000       15.9994           0
     21278 TIP3     1347     TIP3     H1       HT       0.417000       1.00800           0
     21279 TIP3     1347     TIP3     H2       HT       0.417000       1.00800           0
     21280 TIP3     1348     TIP3     OH2      OT      -0.834000       15.9994           0
     21281 TIP3     1348     TIP3     H1       HT       0.417000       1.00800           0
     21282 TIP3     1348     TIP3     H2       HT       0.417000       1.00800           0
     21283 TIP3     1349     TIP3     OH2      OT      -0.834000       15.9994           0
     21284 TIP3     1349     TIP3     H1       HT       0.417000       1.00800           0
     21285 TIP3     1349     TIP3     H2       HT       0.417000       1.00800           0
     21286 TIP3     1350     TIP3     OH2      OT      -0.834000       15.9994           0
     21287 TIP3     1350     TIP3     H1       HT       0.417000       1.00800           0
     21288 TIP3     1350     TIP3     H2       HT       0.417000       1.00800           0
     21289 TIP3     1351     TIP3     OH2      OT      -0.834000       15.9994           0
     21290 TIP3     1351     TIP3     H1       HT       0.417000       1.00800           0
     21291 TIP3     1351     TIP3     H2       HT       0.417000       1.00800           0
     21292 TIP3     1352     TIP3     OH2      OT      -0.834000       15.9994           0
     21293 TIP3     1352     TIP3     H1       HT       0.417000       1.00800           0
     21294 TIP3     1352     TIP3     H2       HT       0.417000       1.00800           0
     21295 TIP3     1353     TIP3     OH2      OT      -0.834000       15.9994           0
     21296 TIP3     1353     TIP3     H1       HT       0.417000       1.00800           0
     21297 TIP3     1353     TIP3     H2       HT       0.417000       1.00800           0
     21298 TIP3     1354     TIP3     OH2      OT      -0.834000       15.9994           0
     21299 TIP3     1354     TIP3     H1       HT       0.417000       1.00800           0
     21300 TIP3     1354     TIP3     H2       HT       0.417000       1.00800           0
     21301 TIP3     1355     TIP3     OH2      OT      -0.834000       15.9994           0
     21302 TIP3     1355     TIP3     H1       HT       0.417000       1.00800           0
     21303 TIP3     1355     TIP3     H2       HT       0.417000       1.00800           0
     21304 TIP3     1356     TIP3     OH2      OT      -0.834000       15.9994           0
     21305 TIP3     1356     TIP3     H1       HT       0.417000       1.00800           0
     21306 TIP3     1356     TIP3     H2       HT       0.417000       1.00800           0
     21307 TIP3     1357     TIP3     OH2      OT      -0.834000       15.9994           0
     21308 TIP3     1357     TIP3     H1       HT       0.417000       1.00800           0
     21309 TIP3     1357     TIP3     H2       HT       0.417000       1.00800           0
     21310 TIP3     1358     TIP3     OH2      OT      -0.834000       15.9994           0
     21311 TIP3     1358     TIP3     H1       HT       0.417000       1.00800           0
     21312 TIP3     1358     TIP3     H2       HT       0.417000       1.00800           0
     21313 TIP3     1359     TIP3     OH2      OT      -0.834000       15.9994           0
     21314 TIP3     1359     TIP3     H1       HT       0.417000       1.00800           0
     21315 TIP3     1359     TIP3     H2       HT       0.417000       1.00800           0
     21316 TIP3     1360     TIP3     OH2      OT      -0.834000       15.9994           0
     21317 TIP3     1360     TIP3     H1       HT       0.417000       1.00800           0
     21318 TIP3     1360     TIP3     H2       HT       0.417000       1.00800           0
     21319 TIP3     1361     TIP3     OH2      OT      -0.834000       15.9994           0
     21320 TIP3     1361     TIP3     H1       HT       0.417000       1.00800           0
     21321 TIP3     1361     TIP3     H2       HT       0.417000       1.00800           0
     21322 TIP3     1362     TIP3     OH2      OT      -0.834000       15.9994           0
     21323 TIP3     1362     TIP3     H1       HT       0.417000       1.00800           0
     21324 TIP3     1362     TIP3     H2       HT       0.417000       1.00800           0
     21325 TIP3     1363     TIP3     OH2      OT      -0.834000       15.9994           0
     21326 TIP3     1363     TIP3     H1       HT       0.417000       1.00800           0
     21327 TIP3     1363     TIP3     H2       HT       0.417000       1.00800           0
     21328 TIP3     1364     TIP3     OH2      OT      -0.834000       15.9994           0
     21329 TIP3     1364     TIP3     H1       HT       0.417000       1.00800           0
     21330 TIP3     1364     TIP3     H2       HT       0.417000       1.00800           0
     21331 TIP3     1365     TIP3     OH2      OT      -0.834000       15.9994           0
     21332 TIP3     1365     TIP3     H1       HT       0.417000       1.00800           0
     21333 TIP3     1365     TIP3     H2       HT       0.417000       1.00800           0
     21334 TIP3     1366     TIP3     OH2      OT      -0.834000       15.9994           0
     21335 TIP3     1366     TIP3     H1       HT       0.417000       1.00800           0
     21336 TIP3     1366     TIP3     H2       HT       0.417000       1.00800           0
     21337 TIP3     1367     TIP3     OH2      OT      -0.834000       15.9994           0
     21338 TIP3     1367     TIP3     H1       HT       0.417000       1.00800           0
     21339 TIP3     1367     TIP3     H2       HT       0.417000       1.00800           0
     21340 TIP3     1368     TIP3     OH2      OT      -0.834000       15.9994           0
     21341 TIP3     1368     TIP3     H1       HT       0.417000       1.00800           0
     21342 TIP3     1368     TIP3     H2       HT       0.417000       1.00800           0
     21343 TIP3     1369     TIP3     OH2      OT      -0.834000       15.9994           0
     21344 TIP3     1369     TIP3     H1       HT       0.417000       1.00800           0
     21345 TIP3     1369     TIP3     H2       HT       0.417000       1.00800           0
     21346 TIP3     1370     TIP3     OH2      OT      -0.834000       15.9994           0
     21347 TIP3     1370     TIP3     H1       HT       0.417000       1.00800           0
     21348 TIP3     1370     TIP3     H2       HT       0.417000       1.00800           0
     21349 TIP3     1371     TIP3     OH2      OT      -0.834000       15.9994           0
     21350 TIP3     1371     TIP3     H1       HT       0.417000       1.00800           0
     21351 TIP3     1371     TIP3     H2       HT       0.417000       1.00800           0
     21352 TIP3     1372     TIP3     OH2      OT      -0.834000       15.9994           0
     21353 TIP3     1372     TIP3     H1       HT       0.417000       1.00800           0
     21354 TIP3     1372     TIP3     H2       HT       0.417000       1.00800           0
     21355 TIP3     1373     TIP3     OH2      OT      -0.834000       15.9994           0
     21356 TIP3     1373     TIP3     H1       HT       0.417000       1.00800           0
     21357 TIP3     1373     TIP3     H2       HT       0.417000       1.00800           0
     21358 TIP3     1374     TIP3     OH2      OT      -0.834000       15.9994           0
     21359 TIP3     1374     TIP3     H1       HT       0.417000       1.00800           0
     21360 TIP3     1374     TIP3     H2       HT       0.417000       1.00800           0
     21361 TIP3     1375     TIP3     OH2      OT      -0.834000       15.9994           0
     21362 TIP3     1375     TIP3     H1       HT       0.417000       1.00800           0
     21363 TIP3     1375     TIP3     H2       HT       0.417000       1.00800           0
     21364 TIP3     1376     TIP3     OH2      OT      -0.834000       15.9994           0
     21365 TIP3     1376     TIP3     H1       HT       0.417000       1.00800           0
     21366 TIP3     1376     TIP3     H2       HT       0.417000       1.00800           0
     21367 TIP3     1377     TIP3     OH2      OT      -0.834000       15.9994           0
     21368 TIP3     1377     TIP3     H1       HT       0.417000       1.00800           0
     21369 TIP3     1377     TIP3     H2       HT       0.417000       1.00800           0
     21370 TIP3     1378     TIP3     OH2      OT      -0.834000       15.9994           0
     21371 TIP3     1378     TIP3     H1       HT       0.417000       1.00800           0
     21372 TIP3     1378     TIP3     H2       HT       0.417000       1.00800           0
     21373 TIP3     1379     TIP3     OH2      OT      -0.834000       15.9994           0
     21374 TIP3     1379     TIP3     H1       HT       0.417000       1.00800           0
     21375 TIP3     1379     TIP3     H2       HT       0.417000       1.00800           0
     21376 TIP3     1380     TIP3     OH2      OT      -0.834000       15.9994           0
     21377 TIP3     1380     TIP3     H1       HT       0.417000       1.00800           0
     21378 TIP3     1380     TIP3     H2       HT       0.417000       1.00800           0
     21379 TIP3     1381     TIP3     OH2      OT      -0.834000       15.9994           0
     21380 TIP3     1381     TIP3     H1       HT       0.417000       1.00800           0
     21381 TIP3     1381     TIP3     H2       HT       0.417000       1.00800           0
     21382 TIP3     1382     TIP3     OH2      OT      -0.834000       15.9994           0
     21383 TIP3     1382     TIP3     H1       HT       0.417000       1.00800           0
     21384 TIP3     1382     TIP3     H2       HT       0.417000       1.00800           0
     21385 TIP3     1383     TIP3     OH2      OT      -0.834000       15.9994           0
     21386 TIP3     1383     TIP3     H1       HT       0.417000       1.00800           0
     21387 TIP3     1383     TIP3     H2       HT       0.417000       1.00800           0
     21388 TIP3     1384     TIP3     OH2      OT      -0.834000       15.9994           0
     21389 TIP3     1384     TIP3     H1       HT       0.417000       1.00800           0
     21390 TIP3     1384     TIP3     H2       HT       0.417000       1.00800           0
     21391 TIP3     1385     TIP3     OH2      OT      -0.834000       15.9994           0
     21392 TIP3     1385     TIP3     H1       HT       0.417000       1.00800           0
     21393 TIP3     1385     TIP3     H2       HT       0.417000       1.00800           0
     21394 TIP3     1386     TIP3     OH2      OT      -0.834000       15.9994           0
     21395 TIP3     1386     TIP3     H1       HT       0.417000       1.00800           0
     21396 TIP3     1386     TIP3     H2       HT       0.417000       1.00800           0
     21397 TIP3     1387     TIP3     OH2      OT      -0.834000       15.9994           0
     21398 TIP3     1387     TIP3     H1       HT       0.417000       1.00800           0
     21399 TIP3     1387     TIP3     H2       HT       0.417000       1.00800           0
     21400 TIP3     1388     TIP3     OH2      OT      -0.834000       15.9994           0
     21401 TIP3     1388     TIP3     H1       HT       0.417000       1.00800           0
     21402 TIP3     1388     TIP3     H2       HT       0.417000       1.00800           0
     21403 TIP3     1389     TIP3     OH2      OT      -0.834000       15.9994           0
     21404 TIP3     1389     TIP3     H1       HT       0.417000       1.00800           0
     21405 TIP3     1389     TIP3     H2       HT       0.417000       1.00800           0
     21406 TIP3     1390     TIP3     OH2      OT      -0.834000       15.9994           0
     21407 TIP3     1390     TIP3     H1       HT       0.417000       1.00800           0
     21408 TIP3     1390     TIP3     H2       HT       0.417000       1.00800           0
     21409 TIP3     1391     TIP3     OH2      OT      -0.834000       15.9994           0
     21410 TIP3     1391     TIP3     H1       HT       0.417000       1.00800           0
     21411 TIP3     1391     TIP3     H2       HT       0.417000       1.00800           0
     21412 TIP3     1392     TIP3     OH2      OT      -0.834000       15.9994           0
     21413 TIP3     1392     TIP3     H1       HT       0.417000       1.00800           0
     21414 TIP3     1392     TIP3     H2       HT       0.417000       1.00800           0
     21415 TIP3     1393     TIP3     OH2      OT      -0.834000       15.9994           0
     21416 TIP3     1393     TIP3     H1       HT       0.417000       1.00800           0
     21417 TIP3     1393     TIP3     H2       HT       0.417000       1.00800           0
     21418 TIP3     1394     TIP3     OH2      OT      -0.834000       15.9994           0
     21419 TIP3     1394     TIP3     H1       HT       0.417000       1.00800           0
     21420 TIP3     1394     TIP3     H2       HT       0.417000       1.00800           0
     21421 TIP3     1395     TIP3     OH2      OT      -0.834000       15.9994           0
     21422 TIP3     1395     TIP3     H1       HT       0.417000       1.00800           0
     21423 TIP3     1395     TIP3     H2       HT       0.417000       1.00800           0
     21424 TIP3     1396     TIP3     OH2      OT      -0.834000       15.9994           0
     21425 TIP3     1396     TIP3     H1       HT       0.417000       1.00800           0
     21426 TIP3     1396     TIP3     H2       HT       0.417000       1.00800           0
     21427 TIP3     1397     TIP3     OH2      OT      -0.834000       15.9994           0
     21428 TIP3     1397     TIP3     H1       HT       0.417000       1.00800           0
     21429 TIP3     1397     TIP3     H2       HT       0.417000       1.00800           0
     21430 TIP3     1398     TIP3     OH2      OT      -0.834000       15.9994           0
     21431 TIP3     1398     TIP3     H1       HT       0.417000       1.00800           0
     21432 TIP3     1398     TIP3     H2       HT       0.417000       1.00800           0
     21433 TIP3     1399     TIP3     OH2      OT      -0.834000       15.9994           0
     21434 TIP3     1399     TIP3     H1       HT       0.417000       1.00800           0
     21435 TIP3     1399     TIP3     H2       HT       0.417000       1.00800           0
     21436 TIP3     1400     TIP3     OH2      OT      -0.834000       15.9994           0
     21437 TIP3     1400     TIP3     H1       HT       0.417000       1.00800           0
     21438 TIP3     1400     TIP3     H2       HT       0.417000       1.00800           0
     21439 TIP3     1401     TIP3     OH2      OT      -0.834000       15.9994           0
     21440 TIP3     1401     TIP3     H1       HT       0.417000       1.00800           0
     21441 TIP3     1401     TIP3     H2       HT       0.417000       1.00800           0
     21442 TIP3     1402     TIP3     OH2      OT      -0.834000       15.9994           0
     21443 TIP3     1402     TIP3     H1       HT       0.417000       1.00800           0
     21444 TIP3     1402     TIP3     H2       HT       0.417000       1.00800           0
     21445 TIP3     1403     TIP3     OH2      OT      -0.834000       15.9994           0
     21446 TIP3     1403     TIP3     H1       HT       0.417000       1.00800           0
     21447 TIP3     1403     TIP3     H2       HT       0.417000       1.00800           0
     21448 TIP3     1404     TIP3     OH2      OT      -0.834000       15.9994           0
     21449 TIP3     1404     TIP3     H1       HT       0.417000       1.00800           0
     21450 TIP3     1404     TIP3     H2       HT       0.417000       1.00800           0
     21451 TIP3     1405     TIP3     OH2      OT      -0.834000       15.9994           0
     21452 TIP3     1405     TIP3     H1       HT       0.417000       1.00800           0
     21453 TIP3     1405     TIP3     H2       HT       0.417000       1.00800           0
     21454 TIP3     1406     TIP3     OH2      OT      -0.834000       15.9994           0
     21455 TIP3     1406     TIP3     H1       HT       0.417000       1.00800           0
     21456 TIP3     1406     TIP3     H2       HT       0.417000       1.00800           0
     21457 TIP3     1407     TIP3     OH2      OT      -0.834000       15.9994           0
     21458 TIP3     1407     TIP3     H1       HT       0.417000       1.00800           0
     21459 TIP3     1407     TIP3     H2       HT       0.417000       1.00800           0
     21460 TIP3     1408     TIP3     OH2      OT      -0.834000       15.9994           0
     21461 TIP3     1408     TIP3     H1       HT       0.417000       1.00800           0
     21462 TIP3     1408     TIP3     H2       HT       0.417000       1.00800           0
     21463 TIP3     1409     TIP3     OH2      OT      -0.834000       15.9994           0
     21464 TIP3     1409     TIP3     H1       HT       0.417000       1.00800           0
     21465 TIP3     1409     TIP3     H2       HT       0.417000       1.00800           0
     21466 TIP3     1410     TIP3     OH2      OT      -0.834000       15.9994           0
     21467 TIP3     1410     TIP3     H1       HT       0.417000       1.00800           0
     21468 TIP3     1410     TIP3     H2       HT       0.417000       1.00800           0
     21469 TIP3     1411     TIP3     OH2      OT      -0.834000       15.9994           0
     21470 TIP3     1411     TIP3     H1       HT       0.417000       1.00800           0
     21471 TIP3     1411     TIP3     H2       HT       0.417000       1.00800           0
     21472 TIP3     1412     TIP3     OH2      OT      -0.834000       15.9994           0
     21473 TIP3     1412     TIP3     H1       HT       0.417000       1.00800           0
     21474 TIP3     1412     TIP3     H2       HT       0.417000       1.00800           0
     21475 TIP3     1413     TIP3     OH2      OT      -0.834000       15.9994           0
     21476 TIP3     1413     TIP3     H1       HT       0.417000       1.00800           0
     21477 TIP3     1413     TIP3     H2       HT       0.417000       1.00800           0
     21478 TIP3     1414     TIP3     OH2      OT      -0.834000       15.9994           0
     21479 TIP3     1414     TIP3     H1       HT       0.417000       1.00800           0
     21480 TIP3     1414     TIP3     H2       HT       0.417000       1.00800           0
     21481 TIP3     1415     TIP3     OH2      OT      -0.834000       15.9994           0
     21482 TIP3     1415     TIP3     H1       HT       0.417000       1.00800           0
     21483 TIP3     1415     TIP3     H2       HT       0.417000       1.00800           0
     21484 TIP3     1416     TIP3     OH2      OT      -0.834000       15.9994           0
     21485 TIP3     1416     TIP3     H1       HT       0.417000       1.00800           0
     21486 TIP3     1416     TIP3     H2       HT       0.417000       1.00800           0
     21487 TIP3     1417     TIP3     OH2      OT      -0.834000       15.9994           0
     21488 TIP3     1417     TIP3     H1       HT       0.417000       1.00800           0
     21489 TIP3     1417     TIP3     H2       HT       0.417000       1.00800           0
     21490 TIP3     1418     TIP3     OH2      OT      -0.834000       15.9994           0
     21491 TIP3     1418     TIP3     H1       HT       0.417000       1.00800           0
     21492 TIP3     1418     TIP3     H2       HT       0.417000       1.00800           0
     21493 TIP3     1419     TIP3     OH2      OT      -0.834000       15.9994           0
     21494 TIP3     1419     TIP3     H1       HT       0.417000       1.00800           0
     21495 TIP3     1419     TIP3     H2       HT       0.417000       1.00800           0
     21496 TIP3     1420     TIP3     OH2      OT      -0.834000       15.9994           0
     21497 TIP3     1420     TIP3     H1       HT       0.417000       1.00800           0
     21498 TIP3     1420     TIP3     H2       HT       0.417000       1.00800           0
     21499 TIP3     1421     TIP3     OH2      OT      -0.834000       15.9994           0
     21500 TIP3     1421     TIP3     H1       HT       0.417000       1.00800           0
     21501 TIP3     1421     TIP3     H2       HT       0.417000       1.00800           0
     21502 TIP3     1422     TIP3     OH2      OT      -0.834000       15.9994           0
     21503 TIP3     1422     TIP3     H1       HT       0.417000       1.00800           0
     21504 TIP3     1422     TIP3     H2       HT       0.417000       1.00800           0
     21505 TIP3     1423     TIP3     OH2      OT      -0.834000       15.9994           0
     21506 TIP3     1423     TIP3     H1       HT       0.417000       1.00800           0
     21507 TIP3     1423     TIP3     H2       HT       0.417000       1.00800           0
     21508 TIP3     1424     TIP3     OH2      OT      -0.834000       15.9994           0
     21509 TIP3     1424     TIP3     H1       HT       0.417000       1.00800           0
     21510 TIP3     1424     TIP3     H2       HT       0.417000       1.00800           0
     21511 TIP3     1425     TIP3     OH2      OT      -0.834000       15.9994           0
     21512 TIP3     1425     TIP3     H1       HT       0.417000       1.00800           0
     21513 TIP3     1425     TIP3     H2       HT       0.417000       1.00800           0
     21514 TIP3     1426     TIP3     OH2      OT      -0.834000       15.9994           0
     21515 TIP3     1426     TIP3     H1       HT       0.417000       1.00800           0
     21516 TIP3     1426     TIP3     H2       HT       0.417000       1.00800           0
     21517 TIP3     1427     TIP3     OH2      OT      -0.834000       15.9994           0
     21518 TIP3     1427     TIP3     H1       HT       0.417000       1.00800           0
     21519 TIP3     1427     TIP3     H2       HT       0.417000       1.00800           0
     21520 TIP3     1428     TIP3     OH2      OT      -0.834000       15.9994           0
     21521 TIP3     1428     TIP3     H1       HT       0.417000       1.00800           0
     21522 TIP3     1428     TIP3     H2       HT       0.417000       1.00800           0
     21523 TIP3     1429     TIP3     OH2      OT      -0.834000       15.9994           0
     21524 TIP3     1429     TIP3     H1       HT       0.417000       1.00800           0
     21525 TIP3     1429     TIP3     H2       HT       0.417000       1.00800           0
     21526 TIP3     1430     TIP3     OH2      OT      -0.834000       15.9994           0
     21527 TIP3     1430     TIP3     H1       HT       0.417000       1.00800           0
     21528 TIP3     1430     TIP3     H2       HT       0.417000       1.00800           0
     21529 TIP3     1431     TIP3     OH2      OT      -0.834000       15.9994           0
     21530 TIP3     1431     TIP3     H1       HT       0.417000       1.00800           0
     21531 TIP3     1431     TIP3     H2       HT       0.417000       1.00800           0
     21532 TIP3     1432     TIP3     OH2      OT      -0.834000       15.9994           0
     21533 TIP3     1432     TIP3     H1       HT       0.417000       1.00800           0
     21534 TIP3     1432     TIP3     H2       HT       0.417000       1.00800           0
     21535 TIP3     1433     TIP3     OH2      OT      -0.834000       15.9994           0
     21536 TIP3     1433     TIP3     H1       HT       0.417000       1.00800           0
     21537 TIP3     1433     TIP3     H2       HT       0.417000       1.00800           0
     21538 TIP3     1434     TIP3     OH2      OT      -0.834000       15.9994           0
     21539 TIP3     1434     TIP3     H1       HT       0.417000       1.00800           0
     21540 TIP3     1434     TIP3     H2       HT       0.417000       1.00800           0
     21541 TIP3     1435     TIP3     OH2      OT      -0.834000       15.9994           0
     21542 TIP3     1435     TIP3     H1       HT       0.417000       1.00800           0
     21543 TIP3     1435     TIP3     H2       HT       0.417000       1.00800           0
     21544 TIP3     1436     TIP3     OH2      OT      -0.834000       15.9994           0
     21545 TIP3     1436     TIP3     H1       HT       0.417000       1.00800           0
     21546 TIP3     1436     TIP3     H2       HT       0.417000       1.00800           0
     21547 TIP3     1437     TIP3     OH2      OT      -0.834000       15.9994           0
     21548 TIP3     1437     TIP3     H1       HT       0.417000       1.00800           0
     21549 TIP3     1437     TIP3     H2       HT       0.417000       1.00800           0
     21550 TIP3     1438     TIP3     OH2      OT      -0.834000       15.9994           0
     21551 TIP3     1438     TIP3     H1       HT       0.417000       1.00800           0
     21552 TIP3     1438     TIP3     H2       HT       0.417000       1.00800           0
     21553 TIP3     1439     TIP3     OH2      OT      -0.834000       15.9994           0
     21554 TIP3     1439     TIP3     H1       HT       0.417000       1.00800           0
     21555 TIP3     1439     TIP3     H2       HT       0.417000       1.00800           0
     21556 TIP3     1440     TIP3     OH2      OT      -0.834000       15.9994           0
     21557 TIP3     1440     TIP3     H1       HT       0.417000       1.00800           0
     21558 TIP3     1440     TIP3     H2       HT       0.417000       1.00800           0
     21559 TIP3     1441     TIP3     OH2      OT      -0.834000       15.9994           0
     21560 TIP3     1441     TIP3     H1       HT       0.417000       1.00800           0
     21561 TIP3     1441     TIP3     H2       HT       0.417000       1.00800           0
     21562 TIP3     1442     TIP3     OH2      OT      -0.834000       15.9994           0
     21563 TIP3     1442     TIP3     H1       HT       0.417000       1.00800           0
     21564 TIP3     1442     TIP3     H2       HT       0.417000       1.00800           0
     21565 TIP3     1443     TIP3     OH2      OT      -0.834000       15.9994           0
     21566 TIP3     1443     TIP3     H1       HT       0.417000       1.00800           0
     21567 TIP3     1443     TIP3     H2       HT       0.417000       1.00800           0
     21568 TIP3     1444     TIP3     OH2      OT      -0.834000       15.9994           0
     21569 TIP3     1444     TIP3     H1       HT       0.417000       1.00800           0
     21570 TIP3     1444     TIP3     H2       HT       0.417000       1.00800           0
     21571 TIP3     1445     TIP3     OH2      OT      -0.834000       15.9994           0
     21572 TIP3     1445     TIP3     H1       HT       0.417000       1.00800           0
     21573 TIP3     1445     TIP3     H2       HT       0.417000       1.00800           0
     21574 TIP3     1446     TIP3     OH2      OT      -0.834000       15.9994           0
     21575 TIP3     1446     TIP3     H1       HT       0.417000       1.00800           0
     21576 TIP3     1446     TIP3     H2       HT       0.417000       1.00800           0
     21577 TIP3     1447     TIP3     OH2      OT      -0.834000       15.9994           0
     21578 TIP3     1447     TIP3     H1       HT       0.417000       1.00800           0
     21579 TIP3     1447     TIP3     H2       HT       0.417000       1.00800           0
     21580 TIP3     1448     TIP3     OH2      OT      -0.834000       15.9994           0
     21581 TIP3     1448     TIP3     H1       HT       0.417000       1.00800           0
     21582 TIP3     1448     TIP3     H2       HT       0.417000       1.00800           0
     21583 TIP3     1449     TIP3     OH2      OT      -0.834000       15.9994           0
     21584 TIP3     1449     TIP3     H1       HT       0.417000       1.00800           0
     21585 TIP3     1449     TIP3     H2       HT       0.417000       1.00800           0
     21586 TIP3     1450     TIP3     OH2      OT      -0.834000       15.9994           0
     21587 TIP3     1450     TIP3     H1       HT       0.417000       1.00800           0
     21588 TIP3     1450     TIP3     H2       HT       0.417000       1.00800           0
     21589 TIP3     1451     TIP3     OH2      OT      -0.834000       15.9994           0
     21590 TIP3     1451     TIP3     H1       HT       0.417000       1.00800           0
     21591 TIP3     1451     TIP3     H2       HT       0.417000       1.00800           0
     21592 TIP3     1452     TIP3     OH2      OT      -0.834000       15.9994           0
     21593 TIP3     1452     TIP3     H1       HT       0.417000       1.00800           0
     21594 TIP3     1452     TIP3     H2       HT       0.417000       1.00800           0
     21595 TIP3     1453     TIP3     OH2      OT      -0.834000       15.9994           0
     21596 TIP3     1453     TIP3     H1       HT       0.417000       1.00800           0
     21597 TIP3     1453     TIP3     H2       HT       0.417000       1.00800           0
     21598 TIP3     1454     TIP3     OH2      OT      -0.834000       15.9994           0
     21599 TIP3     1454     TIP3     H1       HT       0.417000       1.00800           0
     21600 TIP3     1454     TIP3     H2       HT       0.417000       1.00800           0
     21601 TIP3     1455     TIP3     OH2      OT      -0.834000       15.9994           0
     21602 TIP3     1455     TIP3     H1       HT       0.417000       1.00800           0
     21603 TIP3     1455     TIP3     H2       HT       0.417000       1.00800           0
     21604 TIP3     1456     TIP3     OH2      OT      -0.834000       15.9994           0
     21605 TIP3     1456     TIP3     H1       HT       0.417000       1.00800           0
     21606 TIP3     1456     TIP3     H2       HT       0.417000       1.00800           0
     21607 TIP3     1457     TIP3     OH2      OT      -0.834000       15.9994           0
     21608 TIP3     1457     TIP3     H1       HT       0.417000       1.00800           0
     21609 TIP3     1457     TIP3     H2       HT       0.417000       1.00800           0
     21610 TIP3     1458     TIP3     OH2      OT      -0.834000       15.9994           0
     21611 TIP3     1458     TIP3     H1       HT       0.417000       1.00800           0
     21612 TIP3     1458     TIP3     H2       HT       0.417000       1.00800           0
     21613 TIP3     1459     TIP3     OH2      OT      -0.834000       15.9994           0
     21614 TIP3     1459     TIP3     H1       HT       0.417000       1.00800           0
     21615 TIP3     1459     TIP3     H2       HT       0.417000       1.00800           0
     21616 TIP3     1460     TIP3     OH2      OT      -0.834000       15.9994           0
     21617 TIP3     1460     TIP3     H1       HT       0.417000       1.00800           0
     21618 TIP3     1460     TIP3     H2       HT       0.417000       1.00800           0
     21619 TIP3     1461     TIP3     OH2      OT      -0.834000       15.9994           0
     21620 TIP3     1461     TIP3     H1       HT       0.417000       1.00800           0
     21621 TIP3     1461     TIP3     H2       HT       0.417000       1.00800           0
     21622 TIP3     1462     TIP3     OH2      OT      -0.834000       15.9994           0
     21623 TIP3     1462     TIP3     H1       HT       0.417000       1.00800           0
     21624 TIP3     1462     TIP3     H2       HT       0.417000       1.00800           0
     21625 TIP3     1463     TIP3     OH2      OT      -0.834000       15.9994           0
     21626 TIP3     1463     TIP3     H1       HT       0.417000       1.00800           0
     21627 TIP3     1463     TIP3     H2       HT       0.417000       1.00800           0
     21628 TIP3     1464     TIP3     OH2      OT      -0.834000       15.9994           0
     21629 TIP3     1464     TIP3     H1       HT       0.417000       1.00800           0
     21630 TIP3     1464     TIP3     H2       HT       0.417000       1.00800           0
     21631 TIP3     1465     TIP3     OH2      OT      -0.834000       15.9994           0
     21632 TIP3     1465     TIP3     H1       HT       0.417000       1.00800           0
     21633 TIP3     1465     TIP3     H2       HT       0.417000       1.00800           0
     21634 TIP3     1466     TIP3     OH2      OT      -0.834000       15.9994           0
     21635 TIP3     1466     TIP3     H1       HT       0.417000       1.00800           0
     21636 TIP3     1466     TIP3     H2       HT       0.417000       1.00800           0
     21637 TIP3     1467     TIP3     OH2      OT      -0.834000       15.9994           0
     21638 TIP3     1467     TIP3     H1       HT       0.417000       1.00800           0
     21639 TIP3     1467     TIP3     H2       HT       0.417000       1.00800           0
     21640 TIP3     1468     TIP3     OH2      OT      -0.834000       15.9994           0
     21641 TIP3     1468     TIP3     H1       HT       0.417000       1.00800           0
     21642 TIP3     1468     TIP3     H2       HT       0.417000       1.00800           0
     21643 TIP3     1469     TIP3     OH2      OT      -0.834000       15.9994           0
     21644 TIP3     1469     TIP3     H1       HT       0.417000       1.00800           0
     21645 TIP3     1469     TIP3     H2       HT       0.417000       1.00800           0
     21646 TIP3     1470     TIP3     OH2      OT      -0.834000       15.9994           0
     21647 TIP3     1470     TIP3     H1       HT       0.417000       1.00800           0
     21648 TIP3     1470     TIP3     H2       HT       0.417000       1.00800           0
     21649 TIP3     1471     TIP3     OH2      OT      -0.834000       15.9994           0
     21650 TIP3     1471     TIP3     H1       HT       0.417000       1.00800           0
     21651 TIP3     1471     TIP3     H2       HT       0.417000       1.00800           0
     21652 TIP3     1472     TIP3     OH2      OT      -0.834000       15.9994           0
     21653 TIP3     1472     TIP3     H1       HT       0.417000       1.00800           0
     21654 TIP3     1472     TIP3     H2       HT       0.417000       1.00800           0
     21655 TIP3     1473     TIP3     OH2      OT      -0.834000       15.9994           0
     21656 TIP3     1473     TIP3     H1       HT       0.417000       1.00800           0
     21657 TIP3     1473     TIP3     H2       HT       0.417000       1.00800           0
     21658 TIP3     1474     TIP3     OH2      OT      -0.834000       15.9994           0
     21659 TIP3     1474     TIP3     H1       HT       0.417000       1.00800           0
     21660 TIP3     1474     TIP3     H2       HT       0.417000       1.00800           0
     21661 TIP3     1475     TIP3     OH2      OT      -0.834000       15.9994           0
     21662 TIP3     1475     TIP3     H1       HT       0.417000       1.00800           0
     21663 TIP3     1475     TIP3     H2       HT       0.417000       1.00800           0
     21664 TIP3     1476     TIP3     OH2      OT      -0.834000       15.9994           0
     21665 TIP3     1476     TIP3     H1       HT       0.417000       1.00800           0
     21666 TIP3     1476     TIP3     H2       HT       0.417000       1.00800           0
     21667 TIP3     1477     TIP3     OH2      OT      -0.834000       15.9994           0
     21668 TIP3     1477     TIP3     H1       HT       0.417000       1.00800           0
     21669 TIP3     1477     TIP3     H2       HT       0.417000       1.00800           0
     21670 TIP3     1478     TIP3     OH2      OT      -0.834000       15.9994           0
     21671 TIP3     1478     TIP3     H1       HT       0.417000       1.00800           0
     21672 TIP3     1478     TIP3     H2       HT       0.417000       1.00800           0
     21673 TIP3     1479     TIP3     OH2      OT      -0.834000       15.9994           0
     21674 TIP3     1479     TIP3     H1       HT       0.417000       1.00800           0
     21675 TIP3     1479     TIP3     H2       HT       0.417000       1.00800           0
     21676 TIP3     1480     TIP3     OH2      OT      -0.834000       15.9994           0
     21677 TIP3     1480     TIP3     H1       HT       0.417000       1.00800           0
     21678 TIP3     1480     TIP3     H2       HT       0.417000       1.00800           0
     21679 TIP3     1481     TIP3     OH2      OT      -0.834000       15.9994           0
     21680 TIP3     1481     TIP3     H1       HT       0.417000       1.00800           0
     21681 TIP3     1481     TIP3     H2       HT       0.417000       1.00800           0
     21682 TIP3     1482     TIP3     OH2      OT      -0.834000       15.9994           0
     21683 TIP3     1482     TIP3     H1       HT       0.417000       1.00800           0
     21684 TIP3     1482     TIP3     H2       HT       0.417000       1.00800           0
     21685 TIP3     1483     TIP3     OH2      OT      -0.834000       15.9994           0
     21686 TIP3     1483     TIP3     H1       HT       0.417000       1.00800           0
     21687 TIP3     1483     TIP3     H2       HT       0.417000       1.00800           0
     21688 TIP3     1484     TIP3     OH2      OT      -0.834000       15.9994           0
     21689 TIP3     1484     TIP3     H1       HT       0.417000       1.00800           0
     21690 TIP3     1484     TIP3     H2       HT       0.417000       1.00800           0
     21691 TIP3     1485     TIP3     OH2      OT      -0.834000       15.9994           0
     21692 TIP3     1485     TIP3     H1       HT       0.417000       1.00800           0
     21693 TIP3     1485     TIP3     H2       HT       0.417000       1.00800           0
     21694 TIP3     1486     TIP3     OH2      OT      -0.834000       15.9994           0
     21695 TIP3     1486     TIP3     H1       HT       0.417000       1.00800           0
     21696 TIP3     1486     TIP3     H2       HT       0.417000       1.00800           0
     21697 TIP3     1487     TIP3     OH2      OT      -0.834000       15.9994           0
     21698 TIP3     1487     TIP3     H1       HT       0.417000       1.00800           0
     21699 TIP3     1487     TIP3     H2       HT       0.417000       1.00800           0
     21700 TIP3     1488     TIP3     OH2      OT      -0.834000       15.9994           0
     21701 TIP3     1488     TIP3     H1       HT       0.417000       1.00800           0
     21702 TIP3     1488     TIP3     H2       HT       0.417000       1.00800           0
     21703 TIP3     1489     TIP3     OH2      OT      -0.834000       15.9994           0
     21704 TIP3     1489     TIP3     H1       HT       0.417000       1.00800           0
     21705 TIP3     1489     TIP3     H2       HT       0.417000       1.00800           0
     21706 TIP3     1490     TIP3     OH2      OT      -0.834000       15.9994           0
     21707 TIP3     1490     TIP3     H1       HT       0.417000       1.00800           0
     21708 TIP3     1490     TIP3     H2       HT       0.417000       1.00800           0
     21709 TIP3     1491     TIP3     OH2      OT      -0.834000       15.9994           0
     21710 TIP3     1491     TIP3     H1       HT       0.417000       1.00800           0
     21711 TIP3     1491     TIP3     H2       HT       0.417000       1.00800           0
     21712 TIP3     1492     TIP3     OH2      OT      -0.834000       15.9994           0
     21713 TIP3     1492     TIP3     H1       HT       0.417000       1.00800           0
     21714 TIP3     1492     TIP3     H2       HT       0.417000       1.00800           0
     21715 TIP3     1493     TIP3     OH2      OT      -0.834000       15.9994           0
     21716 TIP3     1493     TIP3     H1       HT       0.417000       1.00800           0
     21717 TIP3     1493     TIP3     H2       HT       0.417000       1.00800           0
     21718 TIP3     1494     TIP3     OH2      OT      -0.834000       15.9994           0
     21719 TIP3     1494     TIP3     H1       HT       0.417000       1.00800           0
     21720 TIP3     1494     TIP3     H2       HT       0.417000       1.00800           0
     21721 TIP3     1495     TIP3     OH2      OT      -0.834000       15.9994           0
     21722 TIP3     1495     TIP3     H1       HT       0.417000       1.00800           0
     21723 TIP3     1495     TIP3     H2       HT       0.417000       1.00800           0
     21724 TIP3     1496     TIP3     OH2      OT      -0.834000       15.9994           0
     21725 TIP3     1496     TIP3     H1       HT       0.417000       1.00800           0
     21726 TIP3     1496     TIP3     H2       HT       0.417000       1.00800           0
     21727 TIP3     1497     TIP3     OH2      OT      -0.834000       15.9994           0
     21728 TIP3     1497     TIP3     H1       HT       0.417000       1.00800           0
     21729 TIP3     1497     TIP3     H2       HT       0.417000       1.00800           0
     21730 TIP3     1498     TIP3     OH2      OT      -0.834000       15.9994           0
     21731 TIP3     1498     TIP3     H1       HT       0.417000       1.00800           0
     21732 TIP3     1498     TIP3     H2       HT       0.417000       1.00800           0
     21733 TIP3     1499     TIP3     OH2      OT      -0.834000       15.9994           0
     21734 TIP3     1499     TIP3     H1       HT       0.417000       1.00800           0
     21735 TIP3     1499     TIP3     H2       HT       0.417000       1.00800           0
     21736 TIP3     1500     TIP3     OH2      OT      -0.834000       15.9994           0
     21737 TIP3     1500     TIP3     H1       HT       0.417000       1.00800           0
     21738 TIP3     1500     TIP3     H2       HT       0.417000       1.00800           0
     21739 TIP3     1501     TIP3     OH2      OT      -0.834000       15.9994           0
     21740 TIP3     1501     TIP3     H1       HT       0.417000       1.00800           0
     21741 TIP3     1501     TIP3     H2       HT       0.417000       1.00800           0
     21742 TIP3     1502     TIP3     OH2      OT      -0.834000       15.9994           0
     21743 TIP3     1502     TIP3     H1       HT       0.417000       1.00800           0
     21744 TIP3     1502     TIP3     H2       HT       0.417000       1.00800           0
     21745 TIP3     1503     TIP3     OH2      OT      -0.834000       15.9994           0
     21746 TIP3     1503     TIP3     H1       HT       0.417000       1.00800           0
     21747 TIP3     1503     TIP3     H2       HT       0.417000       1.00800           0
     21748 TIP3     1504     TIP3     OH2      OT      -0.834000       15.9994           0
     21749 TIP3     1504     TIP3     H1       HT       0.417000       1.00800           0
     21750 TIP3     1504     TIP3     H2       HT       0.417000       1.00800           0
     21751 TIP3     1505     TIP3     OH2      OT      -0.834000       15.9994           0
     21752 TIP3     1505     TIP3     H1       HT       0.417000       1.00800           0
     21753 TIP3     1505     TIP3     H2       HT       0.417000       1.00800           0
     21754 TIP3     1506     TIP3     OH2      OT      -0.834000       15.9994           0
     21755 TIP3     1506     TIP3     H1       HT       0.417000       1.00800           0
     21756 TIP3     1506     TIP3     H2       HT       0.417000       1.00800           0
     21757 TIP3     1507     TIP3     OH2      OT      -0.834000       15.9994           0
     21758 TIP3     1507     TIP3     H1       HT       0.417000       1.00800           0
     21759 TIP3     1507     TIP3     H2       HT       0.417000       1.00800           0
     21760 TIP3     1508     TIP3     OH2      OT      -0.834000       15.9994           0
     21761 TIP3     1508     TIP3     H1       HT       0.417000       1.00800           0
     21762 TIP3     1508     TIP3     H2       HT       0.417000       1.00800           0
     21763 TIP3     1509     TIP3     OH2      OT      -0.834000       15.9994           0
     21764 TIP3     1509     TIP3     H1       HT       0.417000       1.00800           0
     21765 TIP3     1509     TIP3     H2       HT       0.417000       1.00800           0
     21766 TIP3     1510     TIP3     OH2      OT      -0.834000       15.9994           0
     21767 TIP3     1510     TIP3     H1       HT       0.417000       1.00800           0
     21768 TIP3     1510     TIP3     H2       HT       0.417000       1.00800           0
     21769 TIP3     1511     TIP3     OH2      OT      -0.834000       15.9994           0
     21770 TIP3     1511     TIP3     H1       HT       0.417000       1.00800           0
     21771 TIP3     1511     TIP3     H2       HT       0.417000       1.00800           0
     21772 TIP3     1512     TIP3     OH2      OT      -0.834000       15.9994           0
     21773 TIP3     1512     TIP3     H1       HT       0.417000       1.00800           0
     21774 TIP3     1512     TIP3     H2       HT       0.417000       1.00800           0
     21775 TIP3     1513     TIP3     OH2      OT      -0.834000       15.9994           0
     21776 TIP3     1513     TIP3     H1       HT       0.417000       1.00800           0
     21777 TIP3     1513     TIP3     H2       HT       0.417000       1.00800           0
     21778 TIP3     1514     TIP3     OH2      OT      -0.834000       15.9994           0
     21779 TIP3     1514     TIP3     H1       HT       0.417000       1.00800           0
     21780 TIP3     1514     TIP3     H2       HT       0.417000       1.00800           0
     21781 TIP3     1515     TIP3     OH2      OT      -0.834000       15.9994           0
     21782 TIP3     1515     TIP3     H1       HT       0.417000       1.00800           0
     21783 TIP3     1515     TIP3     H2       HT       0.417000       1.00800           0
     21784 TIP3     1516     TIP3     OH2      OT      -0.834000       15.9994           0
     21785 TIP3     1516     TIP3     H1       HT       0.417000       1.00800           0
     21786 TIP3     1516     TIP3     H2       HT       0.417000       1.00800           0
     21787 TIP3     1517     TIP3     OH2      OT      -0.834000       15.9994           0
     21788 TIP3     1517     TIP3     H1       HT       0.417000       1.00800           0
     21789 TIP3     1517     TIP3     H2       HT       0.417000       1.00800           0
     21790 TIP3     1518     TIP3     OH2      OT      -0.834000       15.9994           0
     21791 TIP3     1518     TIP3     H1       HT       0.417000       1.00800           0
     21792 TIP3     1518     TIP3     H2       HT       0.417000       1.00800           0
     21793 TIP3     1519     TIP3     OH2      OT      -0.834000       15.9994           0
     21794 TIP3     1519     TIP3     H1       HT       0.417000       1.00800           0
     21795 TIP3     1519     TIP3     H2       HT       0.417000       1.00800           0
     21796 TIP3     1520     TIP3     OH2      OT      -0.834000       15.9994           0
     21797 TIP3     1520     TIP3     H1       HT       0.417000       1.00800           0
     21798 TIP3     1520     TIP3     H2       HT       0.417000       1.00800           0
     21799 TIP3     1521     TIP3     OH2      OT      -0.834000       15.9994           0
     21800 TIP3     1521     TIP3     H1       HT       0.417000       1.00800           0
     21801 TIP3     1521     TIP3     H2       HT       0.417000       1.00800           0
     21802 TIP3     1522     TIP3     OH2      OT      -0.834000       15.9994           0
     21803 TIP3     1522     TIP3     H1       HT       0.417000       1.00800           0
     21804 TIP3     1522     TIP3     H2       HT       0.417000       1.00800           0
     21805 TIP3     1523     TIP3     OH2      OT      -0.834000       15.9994           0
     21806 TIP3     1523     TIP3     H1       HT       0.417000       1.00800           0
     21807 TIP3     1523     TIP3     H2       HT       0.417000       1.00800           0
     21808 TIP3     1524     TIP3     OH2      OT      -0.834000       15.9994           0
     21809 TIP3     1524     TIP3     H1       HT       0.417000       1.00800           0
     21810 TIP3     1524     TIP3     H2       HT       0.417000       1.00800           0
     21811 TIP3     1525     TIP3     OH2      OT      -0.834000       15.9994           0
     21812 TIP3     1525     TIP3     H1       HT       0.417000       1.00800           0
     21813 TIP3     1525     TIP3     H2       HT       0.417000       1.00800           0
     21814 TIP3     1526     TIP3     OH2      OT      -0.834000       15.9994           0
     21815 TIP3     1526     TIP3     H1       HT       0.417000       1.00800           0
     21816 TIP3     1526     TIP3     H2       HT       0.417000       1.00800           0
     21817 TIP3     1527     TIP3     OH2      OT      -0.834000       15.9994           0
     21818 TIP3     1527     TIP3     H1       HT       0.417000       1.00800           0
     21819 TIP3     1527     TIP3     H2       HT       0.417000       1.00800           0
     21820 TIP3     1528     TIP3     OH2      OT      -0.834000       15.9994           0
     21821 TIP3     1528     TIP3     H1       HT       0.417000       1.00800           0
     21822 TIP3     1528     TIP3     H2       HT       0.417000       1.00800           0
     21823 TIP3     1529     TIP3     OH2      OT      -0.834000       15.9994           0
     21824 TIP3     1529     TIP3     H1       HT       0.417000       1.00800           0
     21825 TIP3     1529     TIP3     H2       HT       0.417000       1.00800           0
     21826 TIP3     1530     TIP3     OH2      OT      -0.834000       15.9994           0
     21827 TIP3     1530     TIP3     H1       HT       0.417000       1.00800           0
     21828 TIP3     1530     TIP3     H2       HT       0.417000       1.00800           0
     21829 TIP3     1531     TIP3     OH2      OT      -0.834000       15.9994           0
     21830 TIP3     1531     TIP3     H1       HT       0.417000       1.00800           0
     21831 TIP3     1531     TIP3     H2       HT       0.417000       1.00800           0
     21832 TIP3     1532     TIP3     OH2      OT      -0.834000       15.9994           0
     21833 TIP3     1532     TIP3     H1       HT       0.417000       1.00800           0
     21834 TIP3     1532     TIP3     H2       HT       0.417000       1.00800           0
     21835 TIP3     1533     TIP3     OH2      OT      -0.834000       15.9994           0
     21836 TIP3     1533     TIP3     H1       HT       0.417000       1.00800           0
     21837 TIP3     1533     TIP3     H2       HT       0.417000       1.00800           0
     21838 TIP3     1534     TIP3     OH2      OT      -0.834000       15.9994           0
     21839 TIP3     1534     TIP3     H1       HT       0.417000       1.00800           0
     21840 TIP3     1534     TIP3     H2       HT       0.417000       1.00800           0
     21841 TIP3     1535     TIP3     OH2      OT      -0.834000       15.9994           0
     21842 TIP3     1535     TIP3     H1       HT       0.417000       1.00800           0
     21843 TIP3     1535     TIP3     H2       HT       0.417000       1.00800           0
     21844 TIP3     1536     TIP3     OH2      OT      -0.834000       15.9994           0
     21845 TIP3     1536     TIP3     H1       HT       0.417000       1.00800           0
     21846 TIP3     1536     TIP3     H2       HT       0.417000       1.00800           0
     21847 TIP3     1537     TIP3     OH2      OT      -0.834000       15.9994           0
     21848 TIP3     1537     TIP3     H1       HT       0.417000       1.00800           0
     21849 TIP3     1537     TIP3     H2       HT       0.417000       1.00800           0
     21850 TIP3     1538     TIP3     OH2      OT      -0.834000       15.9994           0
     21851 TIP3     1538     TIP3     H1       HT       0.417000       1.00800           0
     21852 TIP3     1538     TIP3     H2       HT       0.417000       1.00800           0
     21853 TIP3     1539     TIP3     OH2      OT      -0.834000       15.9994           0
     21854 TIP3     1539     TIP3     H1       HT       0.417000       1.00800           0
     21855 TIP3     1539     TIP3     H2       HT       0.417000       1.00800           0
     21856 TIP3     1540     TIP3     OH2      OT      -0.834000       15.9994           0
     21857 TIP3     1540     TIP3     H1       HT       0.417000       1.00800           0
     21858 TIP3     1540     TIP3     H2       HT       0.417000       1.00800           0
     21859 TIP3     1541     TIP3     OH2      OT      -0.834000       15.9994           0
     21860 TIP3     1541     TIP3     H1       HT       0.417000       1.00800           0
     21861 TIP3     1541     TIP3     H2       HT       0.417000       1.00800           0
     21862 TIP3     1542     TIP3     OH2      OT      -0.834000       15.9994           0
     21863 TIP3     1542     TIP3     H1       HT       0.417000       1.00800           0
     21864 TIP3     1542     TIP3     H2       HT       0.417000       1.00800           0
     21865 TIP3     1543     TIP3     OH2      OT      -0.834000       15.9994           0
     21866 TIP3     1543     TIP3     H1       HT       0.417000       1.00800           0
     21867 TIP3     1543     TIP3     H2       HT       0.417000       1.00800           0
     21868 TIP3     1544     TIP3     OH2      OT      -0.834000       15.9994           0
     21869 TIP3     1544     TIP3     H1       HT       0.417000       1.00800           0
     21870 TIP3     1544     TIP3     H2       HT       0.417000       1.00800           0
     21871 TIP3     1545     TIP3     OH2      OT      -0.834000       15.9994           0
     21872 TIP3     1545     TIP3     H1       HT       0.417000       1.00800           0
     21873 TIP3     1545     TIP3     H2       HT       0.417000       1.00800           0
     21874 TIP3     1546     TIP3     OH2      OT      -0.834000       15.9994           0
     21875 TIP3     1546     TIP3     H1       HT       0.417000       1.00800           0
     21876 TIP3     1546     TIP3     H2       HT       0.417000       1.00800           0
     21877 TIP3     1547     TIP3     OH2      OT      -0.834000       15.9994           0
     21878 TIP3     1547     TIP3     H1       HT       0.417000       1.00800           0
     21879 TIP3     1547     TIP3     H2       HT       0.417000       1.00800           0
     21880 TIP3     1548     TIP3     OH2      OT      -0.834000       15.9994           0
     21881 TIP3     1548     TIP3     H1       HT       0.417000       1.00800           0
     21882 TIP3     1548     TIP3     H2       HT       0.417000       1.00800           0
     21883 TIP3     1549     TIP3     OH2      OT      -0.834000       15.9994           0
     21884 TIP3     1549     TIP3     H1       HT       0.417000       1.00800           0
     21885 TIP3     1549     TIP3     H2       HT       0.417000       1.00800           0
     21886 TIP3     1550     TIP3     OH2      OT      -0.834000       15.9994           0
     21887 TIP3     1550     TIP3     H1       HT       0.417000       1.00800           0
     21888 TIP3     1550     TIP3     H2       HT       0.417000       1.00800           0
     21889 TIP3     1551     TIP3     OH2      OT      -0.834000       15.9994           0
     21890 TIP3     1551     TIP3     H1       HT       0.417000       1.00800           0
     21891 TIP3     1551     TIP3     H2       HT       0.417000       1.00800           0
     21892 TIP3     1552     TIP3     OH2      OT      -0.834000       15.9994           0
     21893 TIP3     1552     TIP3     H1       HT       0.417000       1.00800           0
     21894 TIP3     1552     TIP3     H2       HT       0.417000       1.00800           0
     21895 TIP3     1553     TIP3     OH2      OT      -0.834000       15.9994           0
     21896 TIP3     1553     TIP3     H1       HT       0.417000       1.00800           0
     21897 TIP3     1553     TIP3     H2       HT       0.417000       1.00800           0
     21898 TIP3     1554     TIP3     OH2      OT      -0.834000       15.9994           0
     21899 TIP3     1554     TIP3     H1       HT       0.417000       1.00800           0
     21900 TIP3     1554     TIP3     H2       HT       0.417000       1.00800           0
     21901 TIP3     1555     TIP3     OH2      OT      -0.834000       15.9994           0
     21902 TIP3     1555     TIP3     H1       HT       0.417000       1.00800           0
     21903 TIP3     1555     TIP3     H2       HT       0.417000       1.00800           0
     21904 TIP3     1556     TIP3     OH2      OT      -0.834000       15.9994           0
     21905 TIP3     1556     TIP3     H1       HT       0.417000       1.00800           0
     21906 TIP3     1556     TIP3     H2       HT       0.417000       1.00800           0
     21907 TIP3     1557     TIP3     OH2      OT      -0.834000       15.9994           0
     21908 TIP3     1557     TIP3     H1       HT       0.417000       1.00800           0
     21909 TIP3     1557     TIP3     H2       HT       0.417000       1.00800           0
     21910 TIP3     1558     TIP3     OH2      OT      -0.834000       15.9994           0
     21911 TIP3     1558     TIP3     H1       HT       0.417000       1.00800           0
     21912 TIP3     1558     TIP3     H2       HT       0.417000       1.00800           0
     21913 TIP3     1559     TIP3     OH2      OT      -0.834000       15.9994           0
     21914 TIP3     1559     TIP3     H1       HT       0.417000       1.00800           0
     21915 TIP3     1559     TIP3     H2       HT       0.417000       1.00800           0
     21916 TIP3     1560     TIP3     OH2      OT      -0.834000       15.9994           0
     21917 TIP3     1560     TIP3     H1       HT       0.417000       1.00800           0
     21918 TIP3     1560     TIP3     H2       HT       0.417000       1.00800           0
     21919 TIP3     1561     TIP3     OH2      OT      -0.834000       15.9994           0
     21920 TIP3     1561     TIP3     H1       HT       0.417000       1.00800           0
     21921 TIP3     1561     TIP3     H2       HT       0.417000       1.00800           0
     21922 TIP3     1562     TIP3     OH2      OT      -0.834000       15.9994           0
     21923 TIP3     1562     TIP3     H1       HT       0.417000       1.00800           0
     21924 TIP3     1562     TIP3     H2       HT       0.417000       1.00800           0
     21925 TIP3     1563     TIP3     OH2      OT      -0.834000       15.9994           0
     21926 TIP3     1563     TIP3     H1       HT       0.417000       1.00800           0
     21927 TIP3     1563     TIP3     H2       HT       0.417000       1.00800           0
     21928 TIP3     1564     TIP3     OH2      OT      -0.834000       15.9994           0
     21929 TIP3     1564     TIP3     H1       HT       0.417000       1.00800           0
     21930 TIP3     1564     TIP3     H2       HT       0.417000       1.00800           0
     21931 TIP3     1565     TIP3     OH2      OT      -0.834000       15.9994           0
     21932 TIP3     1565     TIP3     H1       HT       0.417000       1.00800           0
     21933 TIP3     1565     TIP3     H2       HT       0.417000       1.00800           0
     21934 TIP3     1566     TIP3     OH2      OT      -0.834000       15.9994           0
     21935 TIP3     1566     TIP3     H1       HT       0.417000       1.00800           0
     21936 TIP3     1566     TIP3     H2       HT       0.417000       1.00800           0
     21937 TIP3     1567     TIP3     OH2      OT      -0.834000       15.9994           0
     21938 TIP3     1567     TIP3     H1       HT       0.417000       1.00800           0
     21939 TIP3     1567     TIP3     H2       HT       0.417000       1.00800           0
     21940 TIP3     1568     TIP3     OH2      OT      -0.834000       15.9994           0
     21941 TIP3     1568     TIP3     H1       HT       0.417000       1.00800           0
     21942 TIP3     1568     TIP3     H2       HT       0.417000       1.00800           0
     21943 TIP3     1569     TIP3     OH2      OT      -0.834000       15.9994           0
     21944 TIP3     1569     TIP3     H1       HT       0.417000       1.00800           0
     21945 TIP3     1569     TIP3     H2       HT       0.417000       1.00800           0
     21946 TIP3     1570     TIP3     OH2      OT      -0.834000       15.9994           0
     21947 TIP3     1570     TIP3     H1       HT       0.417000       1.00800           0
     21948 TIP3     1570     TIP3     H2       HT       0.417000       1.00800           0
     21949 TIP3     1571     TIP3     OH2      OT      -0.834000       15.9994           0
     21950 TIP3     1571     TIP3     H1       HT       0.417000       1.00800           0
     21951 TIP3     1571     TIP3     H2       HT       0.417000       1.00800           0
     21952 TIP3     1572     TIP3     OH2      OT      -0.834000       15.9994           0
     21953 TIP3     1572     TIP3     H1       HT       0.417000       1.00800           0
     21954 TIP3     1572     TIP3     H2       HT       0.417000       1.00800           0
     21955 TIP3     1573     TIP3     OH2      OT      -0.834000       15.9994           0
     21956 TIP3     1573     TIP3     H1       HT       0.417000       1.00800           0
     21957 TIP3     1573     TIP3     H2       HT       0.417000       1.00800           0
     21958 TIP3     1574     TIP3     OH2      OT      -0.834000       15.9994           0
     21959 TIP3     1574     TIP3     H1       HT       0.417000       1.00800           0
     21960 TIP3     1574     TIP3     H2       HT       0.417000       1.00800           0
     21961 TIP3     1575     TIP3     OH2      OT      -0.834000       15.9994           0
     21962 TIP3     1575     TIP3     H1       HT       0.417000       1.00800           0
     21963 TIP3     1575     TIP3     H2       HT       0.417000       1.00800           0
     21964 TIP3     1576     TIP3     OH2      OT      -0.834000       15.9994           0
     21965 TIP3     1576     TIP3     H1       HT       0.417000       1.00800           0
     21966 TIP3     1576     TIP3     H2       HT       0.417000       1.00800           0
     21967 TIP3     1577     TIP3     OH2      OT      -0.834000       15.9994           0
     21968 TIP3     1577     TIP3     H1       HT       0.417000       1.00800           0
     21969 TIP3     1577     TIP3     H2       HT       0.417000       1.00800           0
     21970 TIP3     1578     TIP3     OH2      OT      -0.834000       15.9994           0
     21971 TIP3     1578     TIP3     H1       HT       0.417000       1.00800           0
     21972 TIP3     1578     TIP3     H2       HT       0.417000       1.00800           0
     21973 TIP3     1579     TIP3     OH2      OT      -0.834000       15.9994           0
     21974 TIP3     1579     TIP3     H1       HT       0.417000       1.00800           0
     21975 TIP3     1579     TIP3     H2       HT       0.417000       1.00800           0
     21976 TIP3     1580     TIP3     OH2      OT      -0.834000       15.9994           0
     21977 TIP3     1580     TIP3     H1       HT       0.417000       1.00800           0
     21978 TIP3     1580     TIP3     H2       HT       0.417000       1.00800           0
     21979 TIP3     1581     TIP3     OH2      OT      -0.834000       15.9994           0
     21980 TIP3     1581     TIP3     H1       HT       0.417000       1.00800           0
     21981 TIP3     1581     TIP3     H2       HT       0.417000       1.00800           0
     21982 TIP3     1582     TIP3     OH2      OT      -0.834000       15.9994           0
     21983 TIP3     1582     TIP3     H1       HT       0.417000       1.00800           0
     21984 TIP3     1582     TIP3     H2       HT       0.417000       1.00800           0
     21985 TIP3     1583     TIP3     OH2      OT      -0.834000       15.9994           0
     21986 TIP3     1583     TIP3     H1       HT       0.417000       1.00800           0
     21987 TIP3     1583     TIP3     H2       HT       0.417000       1.00800           0
     21988 TIP3     1584     TIP3     OH2      OT      -0.834000       15.9994           0
     21989 TIP3     1584     TIP3     H1       HT       0.417000       1.00800           0
     21990 TIP3     1584     TIP3     H2       HT       0.417000       1.00800           0
     21991 TIP3     1585     TIP3     OH2      OT      -0.834000       15.9994           0
     21992 TIP3     1585     TIP3     H1       HT       0.417000       1.00800           0
     21993 TIP3     1585     TIP3     H2       HT       0.417000       1.00800           0
     21994 TIP3     1586     TIP3     OH2      OT      -0.834000       15.9994           0
     21995 TIP3     1586     TIP3     H1       HT       0.417000       1.00800           0
     21996 TIP3     1586     TIP3     H2       HT       0.417000       1.00800           0
     21997 TIP3     1587     TIP3     OH2      OT      -0.834000       15.9994           0
     21998 TIP3     1587     TIP3     H1       HT       0.417000       1.00800           0
     21999 TIP3     1587     TIP3     H2       HT       0.417000       1.00800           0
     22000 TIP3     1588     TIP3     OH2      OT      -0.834000       15.9994           0
     22001 TIP3     1588     TIP3     H1       HT       0.417000       1.00800           0
     22002 TIP3     1588     TIP3     H2       HT       0.417000       1.00800           0
     22003 TIP3     1589     TIP3     OH2      OT      -0.834000       15.9994           0
     22004 TIP3     1589     TIP3     H1       HT       0.417000       1.00800           0
     22005 TIP3     1589     TIP3     H2       HT       0.417000       1.00800           0
     22006 TIP3     1590     TIP3     OH2      OT      -0.834000       15.9994           0
     22007 TIP3     1590     TIP3     H1       HT       0.417000       1.00800           0
     22008 TIP3     1590     TIP3     H2       HT       0.417000       1.00800           0
     22009 TIP3     1591     TIP3     OH2      OT      -0.834000       15.9994           0
     22010 TIP3     1591     TIP3     H1       HT       0.417000       1.00800           0
     22011 TIP3     1591     TIP3     H2       HT       0.417000       1.00800           0
     22012 TIP3     1592     TIP3     OH2      OT      -0.834000       15.9994           0
     22013 TIP3     1592     TIP3     H1       HT       0.417000       1.00800           0
     22014 TIP3     1592     TIP3     H2       HT       0.417000       1.00800           0
     22015 TIP3     1593     TIP3     OH2      OT      -0.834000       15.9994           0
     22016 TIP3     1593     TIP3     H1       HT       0.417000       1.00800           0
     22017 TIP3     1593     TIP3     H2       HT       0.417000       1.00800           0
     22018 TIP3     1594     TIP3     OH2      OT      -0.834000       15.9994           0
     22019 TIP3     1594     TIP3     H1       HT       0.417000       1.00800           0
     22020 TIP3     1594     TIP3     H2       HT       0.417000       1.00800           0
     22021 TIP3     1595     TIP3     OH2      OT      -0.834000       15.9994           0
     22022 TIP3     1595     TIP3     H1       HT       0.417000       1.00800           0
     22023 TIP3     1595     TIP3     H2       HT       0.417000       1.00800           0
     22024 TIP3     1596     TIP3     OH2      OT      -0.834000       15.9994           0
     22025 TIP3     1596     TIP3     H1       HT       0.417000       1.00800           0
     22026 TIP3     1596     TIP3     H2       HT       0.417000       1.00800           0
     22027 TIP3     1597     TIP3     OH2      OT      -0.834000       15.9994           0
     22028 TIP3     1597     TIP3     H1       HT       0.417000       1.00800           0
     22029 TIP3     1597     TIP3     H2       HT       0.417000       1.00800           0
     22030 TIP3     1598     TIP3     OH2      OT      -0.834000       15.9994           0
     22031 TIP3     1598     TIP3     H1       HT       0.417000       1.00800           0
     22032 TIP3     1598     TIP3     H2       HT       0.417000       1.00800           0
     22033 TIP3     1599     TIP3     OH2      OT      -0.834000       15.9994           0
     22034 TIP3     1599     TIP3     H1       HT       0.417000       1.00800           0
     22035 TIP3     1599     TIP3     H2       HT       0.417000       1.00800           0
     22036 TIP3     1600     TIP3     OH2      OT      -0.834000       15.9994           0
     22037 TIP3     1600     TIP3     H1       HT       0.417000       1.00800           0
     22038 TIP3     1600     TIP3     H2       HT       0.417000       1.00800           0
     22039 TIP3     1601     TIP3     OH2      OT      -0.834000       15.9994           0
     22040 TIP3     1601     TIP3     H1       HT       0.417000       1.00800           0
     22041 TIP3     1601     TIP3     H2       HT       0.417000       1.00800           0
     22042 TIP3     1602     TIP3     OH2      OT      -0.834000       15.9994           0
     22043 TIP3     1602     TIP3     H1       HT       0.417000       1.00800           0
     22044 TIP3     1602     TIP3     H2       HT       0.417000       1.00800           0
     22045 TIP3     1603     TIP3     OH2      OT      -0.834000       15.9994           0
     22046 TIP3     1603     TIP3     H1       HT       0.417000       1.00800           0
     22047 TIP3     1603     TIP3     H2       HT       0.417000       1.00800           0
     22048 TIP3     1604     TIP3     OH2      OT      -0.834000       15.9994           0
     22049 TIP3     1604     TIP3     H1       HT       0.417000       1.00800           0
     22050 TIP3     1604     TIP3     H2       HT       0.417000       1.00800           0
     22051 TIP3     1605     TIP3     OH2      OT      -0.834000       15.9994           0
     22052 TIP3     1605     TIP3     H1       HT       0.417000       1.00800           0
     22053 TIP3     1605     TIP3     H2       HT       0.417000       1.00800           0
     22054 TIP3     1606     TIP3     OH2      OT      -0.834000       15.9994           0
     22055 TIP3     1606     TIP3     H1       HT       0.417000       1.00800           0
     22056 TIP3     1606     TIP3     H2       HT       0.417000       1.00800           0
     22057 TIP3     1607     TIP3     OH2      OT      -0.834000       15.9994           0
     22058 TIP3     1607     TIP3     H1       HT       0.417000       1.00800           0
     22059 TIP3     1607     TIP3     H2       HT       0.417000       1.00800           0
     22060 TIP3     1608     TIP3     OH2      OT      -0.834000       15.9994           0
     22061 TIP3     1608     TIP3     H1       HT       0.417000       1.00800           0
     22062 TIP3     1608     TIP3     H2       HT       0.417000       1.00800           0
     22063 TIP3     1609     TIP3     OH2      OT      -0.834000       15.9994           0
     22064 TIP3     1609     TIP3     H1       HT       0.417000       1.00800           0
     22065 TIP3     1609     TIP3     H2       HT       0.417000       1.00800           0
     22066 TIP3     1610     TIP3     OH2      OT      -0.834000       15.9994           0
     22067 TIP3     1610     TIP3     H1       HT       0.417000       1.00800           0
     22068 TIP3     1610     TIP3     H2       HT       0.417000       1.00800           0
     22069 TIP3     1611     TIP3     OH2      OT      -0.834000       15.9994           0
     22070 TIP3     1611     TIP3     H1       HT       0.417000       1.00800           0
     22071 TIP3     1611     TIP3     H2       HT       0.417000       1.00800           0
     22072 TIP3     1612     TIP3     OH2      OT      -0.834000       15.9994           0
     22073 TIP3     1612     TIP3     H1       HT       0.417000       1.00800           0
     22074 TIP3     1612     TIP3     H2       HT       0.417000       1.00800           0
     22075 TIP3     1613     TIP3     OH2      OT      -0.834000       15.9994           0
     22076 TIP3     1613     TIP3     H1       HT       0.417000       1.00800           0
     22077 TIP3     1613     TIP3     H2       HT       0.417000       1.00800           0
     22078 TIP3     1614     TIP3     OH2      OT      -0.834000       15.9994           0
     22079 TIP3     1614     TIP3     H1       HT       0.417000       1.00800           0
     22080 TIP3     1614     TIP3     H2       HT       0.417000       1.00800           0
     22081 TIP3     1615     TIP3     OH2      OT      -0.834000       15.9994           0
     22082 TIP3     1615     TIP3     H1       HT       0.417000       1.00800           0
     22083 TIP3     1615     TIP3     H2       HT       0.417000       1.00800           0
     22084 TIP3     1616     TIP3     OH2      OT      -0.834000       15.9994           0
     22085 TIP3     1616     TIP3     H1       HT       0.417000       1.00800           0
     22086 TIP3     1616     TIP3     H2       HT       0.417000       1.00800           0
     22087 TIP3     1617     TIP3     OH2      OT      -0.834000       15.9994           0
     22088 TIP3     1617     TIP3     H1       HT       0.417000       1.00800           0
     22089 TIP3     1617     TIP3     H2       HT       0.417000       1.00800           0
     22090 TIP3     1618     TIP3     OH2      OT      -0.834000       15.9994           0
     22091 TIP3     1618     TIP3     H1       HT       0.417000       1.00800           0
     22092 TIP3     1618     TIP3     H2       HT       0.417000       1.00800           0
     22093 TIP3     1619     TIP3     OH2      OT      -0.834000       15.9994           0
     22094 TIP3     1619     TIP3     H1       HT       0.417000       1.00800           0
     22095 TIP3     1619     TIP3     H2       HT       0.417000       1.00800           0
     22096 TIP3     1620     TIP3     OH2      OT      -0.834000       15.9994           0
     22097 TIP3     1620     TIP3     H1       HT       0.417000       1.00800           0
     22098 TIP3     1620     TIP3     H2       HT       0.417000       1.00800           0
     22099 TIP3     1621     TIP3     OH2      OT      -0.834000       15.9994           0
     22100 TIP3     1621     TIP3     H1       HT       0.417000       1.00800           0
     22101 TIP3     1621     TIP3     H2       HT       0.417000       1.00800           0
     22102 TIP3     1622     TIP3     OH2      OT      -0.834000       15.9994           0
     22103 TIP3     1622     TIP3     H1       HT       0.417000       1.00800           0
     22104 TIP3     1622     TIP3     H2       HT       0.417000       1.00800           0
     22105 TIP3     1623     TIP3     OH2      OT      -0.834000       15.9994           0
     22106 TIP3     1623     TIP3     H1       HT       0.417000       1.00800           0
     22107 TIP3     1623     TIP3     H2       HT       0.417000       1.00800           0
     22108 TIP3     1624     TIP3     OH2      OT      -0.834000       15.9994           0
     22109 TIP3     1624     TIP3     H1       HT       0.417000       1.00800           0
     22110 TIP3     1624     TIP3     H2       HT       0.417000       1.00800           0
     22111 TIP3     1625     TIP3     OH2      OT      -0.834000       15.9994           0
     22112 TIP3     1625     TIP3     H1       HT       0.417000       1.00800           0
     22113 TIP3     1625     TIP3     H2       HT       0.417000       1.00800           0
     22114 TIP3     1626     TIP3     OH2      OT      -0.834000       15.9994           0
     22115 TIP3     1626     TIP3     H1       HT       0.417000       1.00800           0
     22116 TIP3     1626     TIP3     H2       HT       0.417000       1.00800           0
     22117 TIP3     1627     TIP3     OH2      OT      -0.834000       15.9994           0
     22118 TIP3     1627     TIP3     H1       HT       0.417000       1.00800           0
     22119 TIP3     1627     TIP3     H2       HT       0.417000       1.00800           0
     22120 TIP3     1628     TIP3     OH2      OT      -0.834000       15.9994           0
     22121 TIP3     1628     TIP3     H1       HT       0.417000       1.00800           0
     22122 TIP3     1628     TIP3     H2       HT       0.417000       1.00800           0
     22123 TIP3     1629     TIP3     OH2      OT      -0.834000       15.9994           0
     22124 TIP3     1629     TIP3     H1       HT       0.417000       1.00800           0
     22125 TIP3     1629     TIP3     H2       HT       0.417000       1.00800           0
     22126 TIP3     1630     TIP3     OH2      OT      -0.834000       15.9994           0
     22127 TIP3     1630     TIP3     H1       HT       0.417000       1.00800           0
     22128 TIP3     1630     TIP3     H2       HT       0.417000       1.00800           0
     22129 TIP3     1631     TIP3     OH2      OT      -0.834000       15.9994           0
     22130 TIP3     1631     TIP3     H1       HT       0.417000       1.00800           0
     22131 TIP3     1631     TIP3     H2       HT       0.417000       1.00800           0
     22132 TIP3     1632     TIP3     OH2      OT      -0.834000       15.9994           0
     22133 TIP3     1632     TIP3     H1       HT       0.417000       1.00800           0
     22134 TIP3     1632     TIP3     H2       HT       0.417000       1.00800           0
     22135 TIP3     1633     TIP3     OH2      OT      -0.834000       15.9994           0
     22136 TIP3     1633     TIP3     H1       HT       0.417000       1.00800           0
     22137 TIP3     1633     TIP3     H2       HT       0.417000       1.00800           0
     22138 TIP3     1634     TIP3     OH2      OT      -0.834000       15.9994           0
     22139 TIP3     1634     TIP3     H1       HT       0.417000       1.00800           0
     22140 TIP3     1634     TIP3     H2       HT       0.417000       1.00800           0
     22141 TIP3     1635     TIP3     OH2      OT      -0.834000       15.9994           0
     22142 TIP3     1635     TIP3     H1       HT       0.417000       1.00800           0
     22143 TIP3     1635     TIP3     H2       HT       0.417000       1.00800           0
     22144 TIP3     1636     TIP3     OH2      OT      -0.834000       15.9994           0
     22145 TIP3     1636     TIP3     H1       HT       0.417000       1.00800           0
     22146 TIP3     1636     TIP3     H2       HT       0.417000       1.00800           0
     22147 TIP3     1637     TIP3     OH2      OT      -0.834000       15.9994           0
     22148 TIP3     1637     TIP3     H1       HT       0.417000       1.00800           0
     22149 TIP3     1637     TIP3     H2       HT       0.417000       1.00800           0
     22150 TIP3     1638     TIP3     OH2      OT      -0.834000       15.9994           0
     22151 TIP3     1638     TIP3     H1       HT       0.417000       1.00800           0
     22152 TIP3     1638     TIP3     H2       HT       0.417000       1.00800           0
     22153 TIP3     1639     TIP3     OH2      OT      -0.834000       15.9994           0
     22154 TIP3     1639     TIP3     H1       HT       0.417000       1.00800           0
     22155 TIP3     1639     TIP3     H2       HT       0.417000       1.00800           0
     22156 TIP3     1640     TIP3     OH2      OT      -0.834000       15.9994           0
     22157 TIP3     1640     TIP3     H1       HT       0.417000       1.00800           0
     22158 TIP3     1640     TIP3     H2       HT       0.417000       1.00800           0
     22159 TIP3     1641     TIP3     OH2      OT      -0.834000       15.9994           0
     22160 TIP3     1641     TIP3     H1       HT       0.417000       1.00800           0
     22161 TIP3     1641     TIP3     H2       HT       0.417000       1.00800           0
     22162 TIP3     1642     TIP3     OH2      OT      -0.834000       15.9994           0
     22163 TIP3     1642     TIP3     H1       HT       0.417000       1.00800           0
     22164 TIP3     1642     TIP3     H2       HT       0.417000       1.00800           0
     22165 TIP3     1643     TIP3     OH2      OT      -0.834000       15.9994           0
     22166 TIP3     1643     TIP3     H1       HT       0.417000       1.00800           0
     22167 TIP3     1643     TIP3     H2       HT       0.417000       1.00800           0
     22168 TIP3     1644     TIP3     OH2      OT      -0.834000       15.9994           0
     22169 TIP3     1644     TIP3     H1       HT       0.417000       1.00800           0
     22170 TIP3     1644     TIP3     H2       HT       0.417000       1.00800           0
     22171 TIP3     1645     TIP3     OH2      OT      -0.834000       15.9994           0
     22172 TIP3     1645     TIP3     H1       HT       0.417000       1.00800           0
     22173 TIP3     1645     TIP3     H2       HT       0.417000       1.00800           0
     22174 TIP3     1646     TIP3     OH2      OT      -0.834000       15.9994           0
     22175 TIP3     1646     TIP3     H1       HT       0.417000       1.00800           0
     22176 TIP3     1646     TIP3     H2       HT       0.417000       1.00800           0
     22177 TIP3     1647     TIP3     OH2      OT      -0.834000       15.9994           0
     22178 TIP3     1647     TIP3     H1       HT       0.417000       1.00800           0
     22179 TIP3     1647     TIP3     H2       HT       0.417000       1.00800           0
     22180 TIP3     1648     TIP3     OH2      OT      -0.834000       15.9994           0
     22181 TIP3     1648     TIP3     H1       HT       0.417000       1.00800           0
     22182 TIP3     1648     TIP3     H2       HT       0.417000       1.00800           0
     22183 TIP3     1649     TIP3     OH2      OT      -0.834000       15.9994           0
     22184 TIP3     1649     TIP3     H1       HT       0.417000       1.00800           0
     22185 TIP3     1649     TIP3     H2       HT       0.417000       1.00800           0
     22186 TIP3     1650     TIP3     OH2      OT      -0.834000       15.9994           0
     22187 TIP3     1650     TIP3     H1       HT       0.417000       1.00800           0
     22188 TIP3     1650     TIP3     H2       HT       0.417000       1.00800           0
     22189 TIP3     1651     TIP3     OH2      OT      -0.834000       15.9994           0
     22190 TIP3     1651     TIP3     H1       HT       0.417000       1.00800           0
     22191 TIP3     1651     TIP3     H2       HT       0.417000       1.00800           0
     22192 TIP3     1652     TIP3     OH2      OT      -0.834000       15.9994           0
     22193 TIP3     1652     TIP3     H1       HT       0.417000       1.00800           0
     22194 TIP3     1652     TIP3     H2       HT       0.417000       1.00800           0
     22195 TIP3     1653     TIP3     OH2      OT      -0.834000       15.9994           0
     22196 TIP3     1653     TIP3     H1       HT       0.417000       1.00800           0
     22197 TIP3     1653     TIP3     H2       HT       0.417000       1.00800           0
     22198 TIP3     1654     TIP3     OH2      OT      -0.834000       15.9994           0
     22199 TIP3     1654     TIP3     H1       HT       0.417000       1.00800           0
     22200 TIP3     1654     TIP3     H2       HT       0.417000       1.00800           0
     22201 TIP3     1655     TIP3     OH2      OT      -0.834000       15.9994           0
     22202 TIP3     1655     TIP3     H1       HT       0.417000       1.00800           0
     22203 TIP3     1655     TIP3     H2       HT       0.417000       1.00800           0
     22204 TIP3     1656     TIP3     OH2      OT      -0.834000       15.9994           0
     22205 TIP3     1656     TIP3     H1       HT       0.417000       1.00800           0
     22206 TIP3     1656     TIP3     H2       HT       0.417000       1.00800           0
     22207 TIP3     1657     TIP3     OH2      OT      -0.834000       15.9994           0
     22208 TIP3     1657     TIP3     H1       HT       0.417000       1.00800           0
     22209 TIP3     1657     TIP3     H2       HT       0.417000       1.00800           0
     22210 TIP3     1658     TIP3     OH2      OT      -0.834000       15.9994           0
     22211 TIP3     1658     TIP3     H1       HT       0.417000       1.00800           0
     22212 TIP3     1658     TIP3     H2       HT       0.417000       1.00800           0
     22213 TIP3     1659     TIP3     OH2      OT      -0.834000       15.9994           0
     22214 TIP3     1659     TIP3     H1       HT       0.417000       1.00800           0
     22215 TIP3     1659     TIP3     H2       HT       0.417000       1.00800           0
     22216 TIP3     1660     TIP3     OH2      OT      -0.834000       15.9994           0
     22217 TIP3     1660     TIP3     H1       HT       0.417000       1.00800           0
     22218 TIP3     1660     TIP3     H2       HT       0.417000       1.00800           0
     22219 TIP3     1661     TIP3     OH2      OT      -0.834000       15.9994           0
     22220 TIP3     1661     TIP3     H1       HT       0.417000       1.00800           0
     22221 TIP3     1661     TIP3     H2       HT       0.417000       1.00800           0
     22222 TIP3     1662     TIP3     OH2      OT      -0.834000       15.9994           0
     22223 TIP3     1662     TIP3     H1       HT       0.417000       1.00800           0
     22224 TIP3     1662     TIP3     H2       HT       0.417000       1.00800           0
     22225 TIP3     1663     TIP3     OH2      OT      -0.834000       15.9994           0
     22226 TIP3     1663     TIP3     H1       HT       0.417000       1.00800           0
     22227 TIP3     1663     TIP3     H2       HT       0.417000       1.00800           0
     22228 TIP3     1664     TIP3     OH2      OT      -0.834000       15.9994           0
     22229 TIP3     1664     TIP3     H1       HT       0.417000       1.00800           0
     22230 TIP3     1664     TIP3     H2       HT       0.417000       1.00800           0
     22231 TIP3     1665     TIP3     OH2      OT      -0.834000       15.9994           0
     22232 TIP3     1665     TIP3     H1       HT       0.417000       1.00800           0
     22233 TIP3     1665     TIP3     H2       HT       0.417000       1.00800           0
     22234 TIP3     1666     TIP3     OH2      OT      -0.834000       15.9994           0
     22235 TIP3     1666     TIP3     H1       HT       0.417000       1.00800           0
     22236 TIP3     1666     TIP3     H2       HT       0.417000       1.00800           0
     22237 TIP3     1667     TIP3     OH2      OT      -0.834000       15.9994           0
     22238 TIP3     1667     TIP3     H1       HT       0.417000       1.00800           0
     22239 TIP3     1667     TIP3     H2       HT       0.417000       1.00800           0
     22240 TIP3     1668     TIP3     OH2      OT      -0.834000       15.9994           0
     22241 TIP3     1668     TIP3     H1       HT       0.417000       1.00800           0
     22242 TIP3     1668     TIP3     H2       HT       0.417000       1.00800           0
     22243 TIP3     1669     TIP3     OH2      OT      -0.834000       15.9994           0
     22244 TIP3     1669     TIP3     H1       HT       0.417000       1.00800           0
     22245 TIP3     1669     TIP3     H2       HT       0.417000       1.00800           0
     22246 TIP3     1670     TIP3     OH2      OT      -0.834000       15.9994           0
     22247 TIP3     1670     TIP3     H1       HT       0.417000       1.00800           0
     22248 TIP3     1670     TIP3     H2       HT       0.417000       1.00800           0
     22249 TIP3     1671     TIP3     OH2      OT      -0.834000       15.9994           0
     22250 TIP3     1671     TIP3     H1       HT       0.417000       1.00800           0
     22251 TIP3     1671     TIP3     H2       HT       0.417000       1.00800           0
     22252 TIP3     1672     TIP3     OH2      OT      -0.834000       15.9994           0
     22253 TIP3     1672     TIP3     H1       HT       0.417000       1.00800           0
     22254 TIP3     1672     TIP3     H2       HT       0.417000       1.00800           0
     22255 TIP3     1673     TIP3     OH2      OT      -0.834000       15.9994           0
     22256 TIP3     1673     TIP3     H1       HT       0.417000       1.00800           0
     22257 TIP3     1673     TIP3     H2       HT       0.417000       1.00800           0
     22258 TIP3     1674     TIP3     OH2      OT      -0.834000       15.9994           0
     22259 TIP3     1674     TIP3     H1       HT       0.417000       1.00800           0
     22260 TIP3     1674     TIP3     H2       HT       0.417000       1.00800           0
     22261 TIP3     1675     TIP3     OH2      OT      -0.834000       15.9994           0
     22262 TIP3     1675     TIP3     H1       HT       0.417000       1.00800           0
     22263 TIP3     1675     TIP3     H2       HT       0.417000       1.00800           0
     22264 TIP3     1676     TIP3     OH2      OT      -0.834000       15.9994           0
     22265 TIP3     1676     TIP3     H1       HT       0.417000       1.00800           0
     22266 TIP3     1676     TIP3     H2       HT       0.417000       1.00800           0
     22267 TIP3     1677     TIP3     OH2      OT      -0.834000       15.9994           0
     22268 TIP3     1677     TIP3     H1       HT       0.417000       1.00800           0
     22269 TIP3     1677     TIP3     H2       HT       0.417000       1.00800           0
     22270 TIP3     1678     TIP3     OH2      OT      -0.834000       15.9994           0
     22271 TIP3     1678     TIP3     H1       HT       0.417000       1.00800           0
     22272 TIP3     1678     TIP3     H2       HT       0.417000       1.00800           0
     22273 TIP3     1679     TIP3     OH2      OT      -0.834000       15.9994           0
     22274 TIP3     1679     TIP3     H1       HT       0.417000       1.00800           0
     22275 TIP3     1679     TIP3     H2       HT       0.417000       1.00800           0
     22276 TIP3     1680     TIP3     OH2      OT      -0.834000       15.9994           0
     22277 TIP3     1680     TIP3     H1       HT       0.417000       1.00800           0
     22278 TIP3     1680     TIP3     H2       HT       0.417000       1.00800           0
     22279 TIP3     1681     TIP3     OH2      OT      -0.834000       15.9994           0
     22280 TIP3     1681     TIP3     H1       HT       0.417000       1.00800           0
     22281 TIP3     1681     TIP3     H2       HT       0.417000       1.00800           0
     22282 TIP3     1682     TIP3     OH2      OT      -0.834000       15.9994           0
     22283 TIP3     1682     TIP3     H1       HT       0.417000       1.00800           0
     22284 TIP3     1682     TIP3     H2       HT       0.417000       1.00800           0
     22285 TIP3     1683     TIP3     OH2      OT      -0.834000       15.9994           0
     22286 TIP3     1683     TIP3     H1       HT       0.417000       1.00800           0
     22287 TIP3     1683     TIP3     H2       HT       0.417000       1.00800           0
     22288 TIP3     1684     TIP3     OH2      OT      -0.834000       15.9994           0
     22289 TIP3     1684     TIP3     H1       HT       0.417000       1.00800           0
     22290 TIP3     1684     TIP3     H2       HT       0.417000       1.00800           0
     22291 TIP3     1685     TIP3     OH2      OT      -0.834000       15.9994           0
     22292 TIP3     1685     TIP3     H1       HT       0.417000       1.00800           0
     22293 TIP3     1685     TIP3     H2       HT       0.417000       1.00800           0
     22294 TIP3     1686     TIP3     OH2      OT      -0.834000       15.9994           0
     22295 TIP3     1686     TIP3     H1       HT       0.417000       1.00800           0
     22296 TIP3     1686     TIP3     H2       HT       0.417000       1.00800           0
     22297 TIP3     1687     TIP3     OH2      OT      -0.834000       15.9994           0
     22298 TIP3     1687     TIP3     H1       HT       0.417000       1.00800           0
     22299 TIP3     1687     TIP3     H2       HT       0.417000       1.00800           0
     22300 TIP3     1688     TIP3     OH2      OT      -0.834000       15.9994           0
     22301 TIP3     1688     TIP3     H1       HT       0.417000       1.00800           0
     22302 TIP3     1688     TIP3     H2       HT       0.417000       1.00800           0
     22303 TIP3     1689     TIP3     OH2      OT      -0.834000       15.9994           0
     22304 TIP3     1689     TIP3     H1       HT       0.417000       1.00800           0
     22305 TIP3     1689     TIP3     H2       HT       0.417000       1.00800           0
     22306 TIP3     1690     TIP3     OH2      OT      -0.834000       15.9994           0
     22307 TIP3     1690     TIP3     H1       HT       0.417000       1.00800           0
     22308 TIP3     1690     TIP3     H2       HT       0.417000       1.00800           0
     22309 TIP3     1691     TIP3     OH2      OT      -0.834000       15.9994           0
     22310 TIP3     1691     TIP3     H1       HT       0.417000       1.00800           0
     22311 TIP3     1691     TIP3     H2       HT       0.417000       1.00800           0
     22312 TIP3     1692     TIP3     OH2      OT      -0.834000       15.9994           0
     22313 TIP3     1692     TIP3     H1       HT       0.417000       1.00800           0
     22314 TIP3     1692     TIP3     H2       HT       0.417000       1.00800           0
     22315 TIP3     1693     TIP3     OH2      OT      -0.834000       15.9994           0
     22316 TIP3     1693     TIP3     H1       HT       0.417000       1.00800           0
     22317 TIP3     1693     TIP3     H2       HT       0.417000       1.00800           0
     22318 TIP3     1694     TIP3     OH2      OT      -0.834000       15.9994           0
     22319 TIP3     1694     TIP3     H1       HT       0.417000       1.00800           0
     22320 TIP3     1694     TIP3     H2       HT       0.417000       1.00800           0
     22321 TIP3     1695     TIP3     OH2      OT      -0.834000       15.9994           0
     22322 TIP3     1695     TIP3     H1       HT       0.417000       1.00800           0
     22323 TIP3     1695     TIP3     H2       HT       0.417000       1.00800           0
     22324 TIP3     1696     TIP3     OH2      OT      -0.834000       15.9994           0
     22325 TIP3     1696     TIP3     H1       HT       0.417000       1.00800           0
     22326 TIP3     1696     TIP3     H2       HT       0.417000       1.00800           0
     22327 TIP3     1697     TIP3     OH2      OT      -0.834000       15.9994           0
     22328 TIP3     1697     TIP3     H1       HT       0.417000       1.00800           0
     22329 TIP3     1697     TIP3     H2       HT       0.417000       1.00800           0
     22330 TIP3     1698     TIP3     OH2      OT      -0.834000       15.9994           0
     22331 TIP3     1698     TIP3     H1       HT       0.417000       1.00800           0
     22332 TIP3     1698     TIP3     H2       HT       0.417000       1.00800           0
     22333 TIP3     1699     TIP3     OH2      OT      -0.834000       15.9994           0
     22334 TIP3     1699     TIP3     H1       HT       0.417000       1.00800           0
     22335 TIP3     1699     TIP3     H2       HT       0.417000       1.00800           0
     22336 TIP3     1700     TIP3     OH2      OT      -0.834000       15.9994           0
     22337 TIP3     1700     TIP3     H1       HT       0.417000       1.00800           0
     22338 TIP3     1700     TIP3     H2       HT       0.417000       1.00800           0
     22339 TIP3     1701     TIP3     OH2      OT      -0.834000       15.9994           0
     22340 TIP3     1701     TIP3     H1       HT       0.417000       1.00800           0
     22341 TIP3     1701     TIP3     H2       HT       0.417000       1.00800           0
     22342 TIP3     1702     TIP3     OH2      OT      -0.834000       15.9994           0
     22343 TIP3     1702     TIP3     H1       HT       0.417000       1.00800           0
     22344 TIP3     1702     TIP3     H2       HT       0.417000       1.00800           0
     22345 TIP3     1703     TIP3     OH2      OT      -0.834000       15.9994           0
     22346 TIP3     1703     TIP3     H1       HT       0.417000       1.00800           0
     22347 TIP3     1703     TIP3     H2       HT       0.417000       1.00800           0
     22348 TIP3     1704     TIP3     OH2      OT      -0.834000       15.9994           0
     22349 TIP3     1704     TIP3     H1       HT       0.417000       1.00800           0
     22350 TIP3     1704     TIP3     H2       HT       0.417000       1.00800           0
     22351 TIP3     1705     TIP3     OH2      OT      -0.834000       15.9994           0
     22352 TIP3     1705     TIP3     H1       HT       0.417000       1.00800           0
     22353 TIP3     1705     TIP3     H2       HT       0.417000       1.00800           0
     22354 TIP3     1706     TIP3     OH2      OT      -0.834000       15.9994           0
     22355 TIP3     1706     TIP3     H1       HT       0.417000       1.00800           0
     22356 TIP3     1706     TIP3     H2       HT       0.417000       1.00800           0
     22357 TIP3     1707     TIP3     OH2      OT      -0.834000       15.9994           0
     22358 TIP3     1707     TIP3     H1       HT       0.417000       1.00800           0
     22359 TIP3     1707     TIP3     H2       HT       0.417000       1.00800           0
     22360 TIP3     1708     TIP3     OH2      OT      -0.834000       15.9994           0
     22361 TIP3     1708     TIP3     H1       HT       0.417000       1.00800           0
     22362 TIP3     1708     TIP3     H2       HT       0.417000       1.00800           0
     22363 TIP3     1709     TIP3     OH2      OT      -0.834000       15.9994           0
     22364 TIP3     1709     TIP3     H1       HT       0.417000       1.00800           0
     22365 TIP3     1709     TIP3     H2       HT       0.417000       1.00800           0
     22366 TIP3     1710     TIP3     OH2      OT      -0.834000       15.9994           0
     22367 TIP3     1710     TIP3     H1       HT       0.417000       1.00800           0
     22368 TIP3     1710     TIP3     H2       HT       0.417000       1.00800           0
     22369 TIP3     1711     TIP3     OH2      OT      -0.834000       15.9994           0
     22370 TIP3     1711     TIP3     H1       HT       0.417000       1.00800           0
     22371 TIP3     1711     TIP3     H2       HT       0.417000       1.00800           0
     22372 TIP3     1712     TIP3     OH2      OT      -0.834000       15.9994           0
     22373 TIP3     1712     TIP3     H1       HT       0.417000       1.00800           0
     22374 TIP3     1712     TIP3     H2       HT       0.417000       1.00800           0
     22375 TIP3     1713     TIP3     OH2      OT      -0.834000       15.9994           0
     22376 TIP3     1713     TIP3     H1       HT       0.417000       1.00800           0
     22377 TIP3     1713     TIP3     H2       HT       0.417000       1.00800           0
     22378 TIP3     1714     TIP3     OH2      OT      -0.834000       15.9994           0
     22379 TIP3     1714     TIP3     H1       HT       0.417000       1.00800           0
     22380 TIP3     1714     TIP3     H2       HT       0.417000       1.00800           0
     22381 TIP3     1715     TIP3     OH2      OT      -0.834000       15.9994           0
     22382 TIP3     1715     TIP3     H1       HT       0.417000       1.00800           0
     22383 TIP3     1715     TIP3     H2       HT       0.417000       1.00800           0
     22384 TIP3     1716     TIP3     OH2      OT      -0.834000       15.9994           0
     22385 TIP3     1716     TIP3     H1       HT       0.417000       1.00800           0
     22386 TIP3     1716     TIP3     H2       HT       0.417000       1.00800           0
     22387 TIP3     1717     TIP3     OH2      OT      -0.834000       15.9994           0
     22388 TIP3     1717     TIP3     H1       HT       0.417000       1.00800           0
     22389 TIP3     1717     TIP3     H2       HT       0.417000       1.00800           0
     22390 TIP3     1718     TIP3     OH2      OT      -0.834000       15.9994           0
     22391 TIP3     1718     TIP3     H1       HT       0.417000       1.00800           0
     22392 TIP3     1718     TIP3     H2       HT       0.417000       1.00800           0
     22393 TIP3     1719     TIP3     OH2      OT      -0.834000       15.9994           0
     22394 TIP3     1719     TIP3     H1       HT       0.417000       1.00800           0
     22395 TIP3     1719     TIP3     H2       HT       0.417000       1.00800           0
     22396 TIP3     1720     TIP3     OH2      OT      -0.834000       15.9994           0
     22397 TIP3     1720     TIP3     H1       HT       0.417000       1.00800           0
     22398 TIP3     1720     TIP3     H2       HT       0.417000       1.00800           0
     22399 TIP3     1721     TIP3     OH2      OT      -0.834000       15.9994           0
     22400 TIP3     1721     TIP3     H1       HT       0.417000       1.00800           0
     22401 TIP3     1721     TIP3     H2       HT       0.417000       1.00800           0
     22402 TIP3     1722     TIP3     OH2      OT      -0.834000       15.9994           0
     22403 TIP3     1722     TIP3     H1       HT       0.417000       1.00800           0
     22404 TIP3     1722     TIP3     H2       HT       0.417000       1.00800           0
     22405 TIP3     1723     TIP3     OH2      OT      -0.834000       15.9994           0
     22406 TIP3     1723     TIP3     H1       HT       0.417000       1.00800           0
     22407 TIP3     1723     TIP3     H2       HT       0.417000       1.00800           0
     22408 TIP3     1724     TIP3     OH2      OT      -0.834000       15.9994           0
     22409 TIP3     1724     TIP3     H1       HT       0.417000       1.00800           0
     22410 TIP3     1724     TIP3     H2       HT       0.417000       1.00800           0
     22411 TIP3     1725     TIP3     OH2      OT      -0.834000       15.9994           0
     22412 TIP3     1725     TIP3     H1       HT       0.417000       1.00800           0
     22413 TIP3     1725     TIP3     H2       HT       0.417000       1.00800           0
     22414 TIP3     1726     TIP3     OH2      OT      -0.834000       15.9994           0
     22415 TIP3     1726     TIP3     H1       HT       0.417000       1.00800           0
     22416 TIP3     1726     TIP3     H2       HT       0.417000       1.00800           0
     22417 TIP3     1727     TIP3     OH2      OT      -0.834000       15.9994           0
     22418 TIP3     1727     TIP3     H1       HT       0.417000       1.00800           0
     22419 TIP3     1727     TIP3     H2       HT       0.417000       1.00800           0
     22420 TIP3     1728     TIP3     OH2      OT      -0.834000       15.9994           0
     22421 TIP3     1728     TIP3     H1       HT       0.417000       1.00800           0
     22422 TIP3     1728     TIP3     H2       HT       0.417000       1.00800           0
     22423 TIP3     1729     TIP3     OH2      OT      -0.834000       15.9994           0
     22424 TIP3     1729     TIP3     H1       HT       0.417000       1.00800           0
     22425 TIP3     1729     TIP3     H2       HT       0.417000       1.00800           0
     22426 TIP3     1730     TIP3     OH2      OT      -0.834000       15.9994           0
     22427 TIP3     1730     TIP3     H1       HT       0.417000       1.00800           0
     22428 TIP3     1730     TIP3     H2       HT       0.417000       1.00800           0
     22429 TIP3     1731     TIP3     OH2      OT      -0.834000       15.9994           0
     22430 TIP3     1731     TIP3     H1       HT       0.417000       1.00800           0
     22431 TIP3     1731     TIP3     H2       HT       0.417000       1.00800           0
     22432 TIP3     1732     TIP3     OH2      OT      -0.834000       15.9994           0
     22433 TIP3     1732     TIP3     H1       HT       0.417000       1.00800           0
     22434 TIP3     1732     TIP3     H2       HT       0.417000       1.00800           0
     22435 TIP3     1733     TIP3     OH2      OT      -0.834000       15.9994           0
     22436 TIP3     1733     TIP3     H1       HT       0.417000       1.00800           0
     22437 TIP3     1733     TIP3     H2       HT       0.417000       1.00800           0
     22438 TIP3     1734     TIP3     OH2      OT      -0.834000       15.9994           0
     22439 TIP3     1734     TIP3     H1       HT       0.417000       1.00800           0
     22440 TIP3     1734     TIP3     H2       HT       0.417000       1.00800           0
     22441 TIP3     1735     TIP3     OH2      OT      -0.834000       15.9994           0
     22442 TIP3     1735     TIP3     H1       HT       0.417000       1.00800           0
     22443 TIP3     1735     TIP3     H2       HT       0.417000       1.00800           0
     22444 TIP3     1736     TIP3     OH2      OT      -0.834000       15.9994           0
     22445 TIP3     1736     TIP3     H1       HT       0.417000       1.00800           0
     22446 TIP3     1736     TIP3     H2       HT       0.417000       1.00800           0
     22447 TIP3     1737     TIP3     OH2      OT      -0.834000       15.9994           0
     22448 TIP3     1737     TIP3     H1       HT       0.417000       1.00800           0
     22449 TIP3     1737     TIP3     H2       HT       0.417000       1.00800           0
     22450 TIP3     1738     TIP3     OH2      OT      -0.834000       15.9994           0
     22451 TIP3     1738     TIP3     H1       HT       0.417000       1.00800           0
     22452 TIP3     1738     TIP3     H2       HT       0.417000       1.00800           0
     22453 TIP3     1739     TIP3     OH2      OT      -0.834000       15.9994           0
     22454 TIP3     1739     TIP3     H1       HT       0.417000       1.00800           0
     22455 TIP3     1739     TIP3     H2       HT       0.417000       1.00800           0
     22456 TIP3     1740     TIP3     OH2      OT      -0.834000       15.9994           0
     22457 TIP3     1740     TIP3     H1       HT       0.417000       1.00800           0
     22458 TIP3     1740     TIP3     H2       HT       0.417000       1.00800           0
     22459 TIP3     1741     TIP3     OH2      OT      -0.834000       15.9994           0
     22460 TIP3     1741     TIP3     H1       HT       0.417000       1.00800           0
     22461 TIP3     1741     TIP3     H2       HT       0.417000       1.00800           0
     22462 TIP3     1742     TIP3     OH2      OT      -0.834000       15.9994           0
     22463 TIP3     1742     TIP3     H1       HT       0.417000       1.00800           0
     22464 TIP3     1742     TIP3     H2       HT       0.417000       1.00800           0
     22465 TIP3     1743     TIP3     OH2      OT      -0.834000       15.9994           0
     22466 TIP3     1743     TIP3     H1       HT       0.417000       1.00800           0
     22467 TIP3     1743     TIP3     H2       HT       0.417000       1.00800           0
     22468 TIP3     1744     TIP3     OH2      OT      -0.834000       15.9994           0
     22469 TIP3     1744     TIP3     H1       HT       0.417000       1.00800           0
     22470 TIP3     1744     TIP3     H2       HT       0.417000       1.00800           0
     22471 TIP3     1745     TIP3     OH2      OT      -0.834000       15.9994           0
     22472 TIP3     1745     TIP3     H1       HT       0.417000       1.00800           0
     22473 TIP3     1745     TIP3     H2       HT       0.417000       1.00800           0
     22474 TIP3     1746     TIP3     OH2      OT      -0.834000       15.9994           0
     22475 TIP3     1746     TIP3     H1       HT       0.417000       1.00800           0
     22476 TIP3     1746     TIP3     H2       HT       0.417000       1.00800           0
     22477 TIP3     1747     TIP3     OH2      OT      -0.834000       15.9994           0
     22478 TIP3     1747     TIP3     H1       HT       0.417000       1.00800           0
     22479 TIP3     1747     TIP3     H2       HT       0.417000       1.00800           0
     22480 TIP3     1748     TIP3     OH2      OT      -0.834000       15.9994           0
     22481 TIP3     1748     TIP3     H1       HT       0.417000       1.00800           0
     22482 TIP3     1748     TIP3     H2       HT       0.417000       1.00800           0
     22483 TIP3     1749     TIP3     OH2      OT      -0.834000       15.9994           0
     22484 TIP3     1749     TIP3     H1       HT       0.417000       1.00800           0
     22485 TIP3     1749     TIP3     H2       HT       0.417000       1.00800           0
     22486 TIP3     1750     TIP3     OH2      OT      -0.834000       15.9994           0
     22487 TIP3     1750     TIP3     H1       HT       0.417000       1.00800           0
     22488 TIP3     1750     TIP3     H2       HT       0.417000       1.00800           0
     22489 TIP3     1751     TIP3     OH2      OT      -0.834000       15.9994           0
     22490 TIP3     1751     TIP3     H1       HT       0.417000       1.00800           0
     22491 TIP3     1751     TIP3     H2       HT       0.417000       1.00800           0
     22492 TIP3     1752     TIP3     OH2      OT      -0.834000       15.9994           0
     22493 TIP3     1752     TIP3     H1       HT       0.417000       1.00800           0
     22494 TIP3     1752     TIP3     H2       HT       0.417000       1.00800           0
     22495 TIP3     1753     TIP3     OH2      OT      -0.834000       15.9994           0
     22496 TIP3     1753     TIP3     H1       HT       0.417000       1.00800           0
     22497 TIP3     1753     TIP3     H2       HT       0.417000       1.00800           0
     22498 TIP3     1754     TIP3     OH2      OT      -0.834000       15.9994           0
     22499 TIP3     1754     TIP3     H1       HT       0.417000       1.00800           0
     22500 TIP3     1754     TIP3     H2       HT       0.417000       1.00800           0
     22501 TIP3     1755     TIP3     OH2      OT      -0.834000       15.9994           0
     22502 TIP3     1755     TIP3     H1       HT       0.417000       1.00800           0
     22503 TIP3     1755     TIP3     H2       HT       0.417000       1.00800           0
     22504 TIP3     1756     TIP3     OH2      OT      -0.834000       15.9994           0
     22505 TIP3     1756     TIP3     H1       HT       0.417000       1.00800           0
     22506 TIP3     1756     TIP3     H2       HT       0.417000       1.00800           0
     22507 TIP3     1757     TIP3     OH2      OT      -0.834000       15.9994           0
     22508 TIP3     1757     TIP3     H1       HT       0.417000       1.00800           0
     22509 TIP3     1757     TIP3     H2       HT       0.417000       1.00800           0
     22510 TIP3     1758     TIP3     OH2      OT      -0.834000       15.9994           0
     22511 TIP3     1758     TIP3     H1       HT       0.417000       1.00800           0
     22512 TIP3     1758     TIP3     H2       HT       0.417000       1.00800           0
     22513 TIP3     1759     TIP3     OH2      OT      -0.834000       15.9994           0
     22514 TIP3     1759     TIP3     H1       HT       0.417000       1.00800           0
     22515 TIP3     1759     TIP3     H2       HT       0.417000       1.00800           0
     22516 TIP3     1760     TIP3     OH2      OT      -0.834000       15.9994           0
     22517 TIP3     1760     TIP3     H1       HT       0.417000       1.00800           0
     22518 TIP3     1760     TIP3     H2       HT       0.417000       1.00800           0
     22519 TIP3     1761     TIP3     OH2      OT      -0.834000       15.9994           0
     22520 TIP3     1761     TIP3     H1       HT       0.417000       1.00800           0
     22521 TIP3     1761     TIP3     H2       HT       0.417000       1.00800           0
     22522 TIP3     1762     TIP3     OH2      OT      -0.834000       15.9994           0
     22523 TIP3     1762     TIP3     H1       HT       0.417000       1.00800           0
     22524 TIP3     1762     TIP3     H2       HT       0.417000       1.00800           0
     22525 TIP3     1763     TIP3     OH2      OT      -0.834000       15.9994           0
     22526 TIP3     1763     TIP3     H1       HT       0.417000       1.00800           0
     22527 TIP3     1763     TIP3     H2       HT       0.417000       1.00800           0
     22528 TIP3     1764     TIP3     OH2      OT      -0.834000       15.9994           0
     22529 TIP3     1764     TIP3     H1       HT       0.417000       1.00800           0
     22530 TIP3     1764     TIP3     H2       HT       0.417000       1.00800           0
     22531 TIP3     1765     TIP3     OH2      OT      -0.834000       15.9994           0
     22532 TIP3     1765     TIP3     H1       HT       0.417000       1.00800           0
     22533 TIP3     1765     TIP3     H2       HT       0.417000       1.00800           0
     22534 TIP3     1766     TIP3     OH2      OT      -0.834000       15.9994           0
     22535 TIP3     1766     TIP3     H1       HT       0.417000       1.00800           0
     22536 TIP3     1766     TIP3     H2       HT       0.417000       1.00800           0
     22537 TIP3     1767     TIP3     OH2      OT      -0.834000       15.9994           0
     22538 TIP3     1767     TIP3     H1       HT       0.417000       1.00800           0
     22539 TIP3     1767     TIP3     H2       HT       0.417000       1.00800           0
     22540 TIP3     1768     TIP3     OH2      OT      -0.834000       15.9994           0
     22541 TIP3     1768     TIP3     H1       HT       0.417000       1.00800           0
     22542 TIP3     1768     TIP3     H2       HT       0.417000       1.00800           0
     22543 TIP3     1769     TIP3     OH2      OT      -0.834000       15.9994           0
     22544 TIP3     1769     TIP3     H1       HT       0.417000       1.00800           0
     22545 TIP3     1769     TIP3     H2       HT       0.417000       1.00800           0
     22546 TIP3     1770     TIP3     OH2      OT      -0.834000       15.9994           0
     22547 TIP3     1770     TIP3     H1       HT       0.417000       1.00800           0
     22548 TIP3     1770     TIP3     H2       HT       0.417000       1.00800           0
     22549 TIP3     1771     TIP3     OH2      OT      -0.834000       15.9994           0
     22550 TIP3     1771     TIP3     H1       HT       0.417000       1.00800           0
     22551 TIP3     1771     TIP3     H2       HT       0.417000       1.00800           0
     22552 TIP3     1772     TIP3     OH2      OT      -0.834000       15.9994           0
     22553 TIP3     1772     TIP3     H1       HT       0.417000       1.00800           0
     22554 TIP3     1772     TIP3     H2       HT       0.417000       1.00800           0
     22555 TIP3     1773     TIP3     OH2      OT      -0.834000       15.9994           0
     22556 TIP3     1773     TIP3     H1       HT       0.417000       1.00800           0
     22557 TIP3     1773     TIP3     H2       HT       0.417000       1.00800           0
     22558 TIP3     1774     TIP3     OH2      OT      -0.834000       15.9994           0
     22559 TIP3     1774     TIP3     H1       HT       0.417000       1.00800           0
     22560 TIP3     1774     TIP3     H2       HT       0.417000       1.00800           0
     22561 TIP3     1775     TIP3     OH2      OT      -0.834000       15.9994           0
     22562 TIP3     1775     TIP3     H1       HT       0.417000       1.00800           0
     22563 TIP3     1775     TIP3     H2       HT       0.417000       1.00800           0
     22564 TIP3     1776     TIP3     OH2      OT      -0.834000       15.9994           0
     22565 TIP3     1776     TIP3     H1       HT       0.417000       1.00800           0
     22566 TIP3     1776     TIP3     H2       HT       0.417000       1.00800           0
     22567 TIP3     1777     TIP3     OH2      OT      -0.834000       15.9994           0
     22568 TIP3     1777     TIP3     H1       HT       0.417000       1.00800           0
     22569 TIP3     1777     TIP3     H2       HT       0.417000       1.00800           0
     22570 TIP3     1778     TIP3     OH2      OT      -0.834000       15.9994           0
     22571 TIP3     1778     TIP3     H1       HT       0.417000       1.00800           0
     22572 TIP3     1778     TIP3     H2       HT       0.417000       1.00800           0
     22573 TIP3     1779     TIP3     OH2      OT      -0.834000       15.9994           0
     22574 TIP3     1779     TIP3     H1       HT       0.417000       1.00800           0
     22575 TIP3     1779     TIP3     H2       HT       0.417000       1.00800           0
     22576 TIP3     1780     TIP3     OH2      OT      -0.834000       15.9994           0
     22577 TIP3     1780     TIP3     H1       HT       0.417000       1.00800           0
     22578 TIP3     1780     TIP3     H2       HT       0.417000       1.00800           0
     22579 TIP3     1781     TIP3     OH2      OT      -0.834000       15.9994           0
     22580 TIP3     1781     TIP3     H1       HT       0.417000       1.00800           0
     22581 TIP3     1781     TIP3     H2       HT       0.417000       1.00800           0
     22582 TIP3     1782     TIP3     OH2      OT      -0.834000       15.9994           0
     22583 TIP3     1782     TIP3     H1       HT       0.417000       1.00800           0
     22584 TIP3     1782     TIP3     H2       HT       0.417000       1.00800           0
     22585 TIP3     1783     TIP3     OH2      OT      -0.834000       15.9994           0
     22586 TIP3     1783     TIP3     H1       HT       0.417000       1.00800           0
     22587 TIP3     1783     TIP3     H2       HT       0.417000       1.00800           0
     22588 TIP3     1784     TIP3     OH2      OT      -0.834000       15.9994           0
     22589 TIP3     1784     TIP3     H1       HT       0.417000       1.00800           0
     22590 TIP3     1784     TIP3     H2       HT       0.417000       1.00800           0
     22591 TIP3     1785     TIP3     OH2      OT      -0.834000       15.9994           0
     22592 TIP3     1785     TIP3     H1       HT       0.417000       1.00800           0
     22593 TIP3     1785     TIP3     H2       HT       0.417000       1.00800           0
     22594 TIP3     1786     TIP3     OH2      OT      -0.834000       15.9994           0
     22595 TIP3     1786     TIP3     H1       HT       0.417000       1.00800           0
     22596 TIP3     1786     TIP3     H2       HT       0.417000       1.00800           0
     22597 TIP3     1787     TIP3     OH2      OT      -0.834000       15.9994           0
     22598 TIP3     1787     TIP3     H1       HT       0.417000       1.00800           0
     22599 TIP3     1787     TIP3     H2       HT       0.417000       1.00800           0
     22600 TIP3     1788     TIP3     OH2      OT      -0.834000       15.9994           0
     22601 TIP3     1788     TIP3     H1       HT       0.417000       1.00800           0
     22602 TIP3     1788     TIP3     H2       HT       0.417000       1.00800           0
     22603 TIP3     1789     TIP3     OH2      OT      -0.834000       15.9994           0
     22604 TIP3     1789     TIP3     H1       HT       0.417000       1.00800           0
     22605 TIP3     1789     TIP3     H2       HT       0.417000       1.00800           0
     22606 TIP3     1790     TIP3     OH2      OT      -0.834000       15.9994           0
     22607 TIP3     1790     TIP3     H1       HT       0.417000       1.00800           0
     22608 TIP3     1790     TIP3     H2       HT       0.417000       1.00800           0
     22609 TIP3     1791     TIP3     OH2      OT      -0.834000       15.9994           0
     22610 TIP3     1791     TIP3     H1       HT       0.417000       1.00800           0
     22611 TIP3     1791     TIP3     H2       HT       0.417000       1.00800           0
     22612 TIP3     1792     TIP3     OH2      OT      -0.834000       15.9994           0
     22613 TIP3     1792     TIP3     H1       HT       0.417000       1.00800           0
     22614 TIP3     1792     TIP3     H2       HT       0.417000       1.00800           0
     22615 TIP3     1793     TIP3     OH2      OT      -0.834000       15.9994           0
     22616 TIP3     1793     TIP3     H1       HT       0.417000       1.00800           0
     22617 TIP3     1793     TIP3     H2       HT       0.417000       1.00800           0
     22618 TIP3     1794     TIP3     OH2      OT      -0.834000       15.9994           0
     22619 TIP3     1794     TIP3     H1       HT       0.417000       1.00800           0
     22620 TIP3     1794     TIP3     H2       HT       0.417000       1.00800           0
     22621 TIP3     1795     TIP3     OH2      OT      -0.834000       15.9994           0
     22622 TIP3     1795     TIP3     H1       HT       0.417000       1.00800           0
     22623 TIP3     1795     TIP3     H2       HT       0.417000       1.00800           0
     22624 TIP3     1796     TIP3     OH2      OT      -0.834000       15.9994           0
     22625 TIP3     1796     TIP3     H1       HT       0.417000       1.00800           0
     22626 TIP3     1796     TIP3     H2       HT       0.417000       1.00800           0
     22627 TIP3     1797     TIP3     OH2      OT      -0.834000       15.9994           0
     22628 TIP3     1797     TIP3     H1       HT       0.417000       1.00800           0
     22629 TIP3     1797     TIP3     H2       HT       0.417000       1.00800           0
     22630 TIP3     1798     TIP3     OH2      OT      -0.834000       15.9994           0
     22631 TIP3     1798     TIP3     H1       HT       0.417000       1.00800           0
     22632 TIP3     1798     TIP3     H2       HT       0.417000       1.00800           0
     22633 TIP3     1799     TIP3     OH2      OT      -0.834000       15.9994           0
     22634 TIP3     1799     TIP3     H1       HT       0.417000       1.00800           0
     22635 TIP3     1799     TIP3     H2       HT       0.417000       1.00800           0
     22636 TIP3     1800     TIP3     OH2      OT      -0.834000       15.9994           0
     22637 TIP3     1800     TIP3     H1       HT       0.417000       1.00800           0
     22638 TIP3     1800     TIP3     H2       HT       0.417000       1.00800           0
     22639 TIP3     1801     TIP3     OH2      OT      -0.834000       15.9994           0
     22640 TIP3     1801     TIP3     H1       HT       0.417000       1.00800           0
     22641 TIP3     1801     TIP3     H2       HT       0.417000       1.00800           0
     22642 TIP3     1802     TIP3     OH2      OT      -0.834000       15.9994           0
     22643 TIP3     1802     TIP3     H1       HT       0.417000       1.00800           0
     22644 TIP3     1802     TIP3     H2       HT       0.417000       1.00800           0
     22645 TIP3     1803     TIP3     OH2      OT      -0.834000       15.9994           0
     22646 TIP3     1803     TIP3     H1       HT       0.417000       1.00800           0
     22647 TIP3     1803     TIP3     H2       HT       0.417000       1.00800           0
     22648 TIP3     1804     TIP3     OH2      OT      -0.834000       15.9994           0
     22649 TIP3     1804     TIP3     H1       HT       0.417000       1.00800           0
     22650 TIP3     1804     TIP3     H2       HT       0.417000       1.00800           0
     22651 TIP3     1805     TIP3     OH2      OT      -0.834000       15.9994           0
     22652 TIP3     1805     TIP3     H1       HT       0.417000       1.00800           0
     22653 TIP3     1805     TIP3     H2       HT       0.417000       1.00800           0
     22654 TIP3     1806     TIP3     OH2      OT      -0.834000       15.9994           0
     22655 TIP3     1806     TIP3     H1       HT       0.417000       1.00800           0
     22656 TIP3     1806     TIP3     H2       HT       0.417000       1.00800           0
     22657 TIP3     1807     TIP3     OH2      OT      -0.834000       15.9994           0
     22658 TIP3     1807     TIP3     H1       HT       0.417000       1.00800           0
     22659 TIP3     1807     TIP3     H2       HT       0.417000       1.00800           0
     22660 TIP3     1808     TIP3     OH2      OT      -0.834000       15.9994           0
     22661 TIP3     1808     TIP3     H1       HT       0.417000       1.00800           0
     22662 TIP3     1808     TIP3     H2       HT       0.417000       1.00800           0
     22663 TIP3     1809     TIP3     OH2      OT      -0.834000       15.9994           0
     22664 TIP3     1809     TIP3     H1       HT       0.417000       1.00800           0
     22665 TIP3     1809     TIP3     H2       HT       0.417000       1.00800           0
     22666 TIP3     1810     TIP3     OH2      OT      -0.834000       15.9994           0
     22667 TIP3     1810     TIP3     H1       HT       0.417000       1.00800           0
     22668 TIP3     1810     TIP3     H2       HT       0.417000       1.00800           0
     22669 TIP3     1811     TIP3     OH2      OT      -0.834000       15.9994           0
     22670 TIP3     1811     TIP3     H1       HT       0.417000       1.00800           0
     22671 TIP3     1811     TIP3     H2       HT       0.417000       1.00800           0
     22672 TIP3     1812     TIP3     OH2      OT      -0.834000       15.9994           0
     22673 TIP3     1812     TIP3     H1       HT       0.417000       1.00800           0
     22674 TIP3     1812     TIP3     H2       HT       0.417000       1.00800           0
     22675 TIP3     1813     TIP3     OH2      OT      -0.834000       15.9994           0
     22676 TIP3     1813     TIP3     H1       HT       0.417000       1.00800           0
     22677 TIP3     1813     TIP3     H2       HT       0.417000       1.00800           0
     22678 TIP3     1814     TIP3     OH2      OT      -0.834000       15.9994           0
     22679 TIP3     1814     TIP3     H1       HT       0.417000       1.00800           0
     22680 TIP3     1814     TIP3     H2       HT       0.417000       1.00800           0
     22681 TIP3     1815     TIP3     OH2      OT      -0.834000       15.9994           0
     22682 TIP3     1815     TIP3     H1       HT       0.417000       1.00800           0
     22683 TIP3     1815     TIP3     H2       HT       0.417000       1.00800           0
     22684 TIP3     1816     TIP3     OH2      OT      -0.834000       15.9994           0
     22685 TIP3     1816     TIP3     H1       HT       0.417000       1.00800           0
     22686 TIP3     1816     TIP3     H2       HT       0.417000       1.00800           0
     22687 TIP3     1817     TIP3     OH2      OT      -0.834000       15.9994           0
     22688 TIP3     1817     TIP3     H1       HT       0.417000       1.00800           0
     22689 TIP3     1817     TIP3     H2       HT       0.417000       1.00800           0
     22690 TIP3     1818     TIP3     OH2      OT      -0.834000       15.9994           0
     22691 TIP3     1818     TIP3     H1       HT       0.417000       1.00800           0
     22692 TIP3     1818     TIP3     H2       HT       0.417000       1.00800           0
     22693 TIP3     1819     TIP3     OH2      OT      -0.834000       15.9994           0
     22694 TIP3     1819     TIP3     H1       HT       0.417000       1.00800           0
     22695 TIP3     1819     TIP3     H2       HT       0.417000       1.00800           0
     22696 TIP3     1820     TIP3     OH2      OT      -0.834000       15.9994           0
     22697 TIP3     1820     TIP3     H1       HT       0.417000       1.00800           0
     22698 TIP3     1820     TIP3     H2       HT       0.417000       1.00800           0
     22699 TIP3     1821     TIP3     OH2      OT      -0.834000       15.9994           0
     22700 TIP3     1821     TIP3     H1       HT       0.417000       1.00800           0
     22701 TIP3     1821     TIP3     H2       HT       0.417000       1.00800           0
     22702 TIP3     1822     TIP3     OH2      OT      -0.834000       15.9994           0
     22703 TIP3     1822     TIP3     H1       HT       0.417000       1.00800           0
     22704 TIP3     1822     TIP3     H2       HT       0.417000       1.00800           0
     22705 TIP3     1823     TIP3     OH2      OT      -0.834000       15.9994           0
     22706 TIP3     1823     TIP3     H1       HT       0.417000       1.00800           0
     22707 TIP3     1823     TIP3     H2       HT       0.417000       1.00800           0
     22708 TIP3     1824     TIP3     OH2      OT      -0.834000       15.9994           0
     22709 TIP3     1824     TIP3     H1       HT       0.417000       1.00800           0
     22710 TIP3     1824     TIP3     H2       HT       0.417000       1.00800           0
     22711 TIP3     1825     TIP3     OH2      OT      -0.834000       15.9994           0
     22712 TIP3     1825     TIP3     H1       HT       0.417000       1.00800           0
     22713 TIP3     1825     TIP3     H2       HT       0.417000       1.00800           0
     22714 TIP3     1826     TIP3     OH2      OT      -0.834000       15.9994           0
     22715 TIP3     1826     TIP3     H1       HT       0.417000       1.00800           0
     22716 TIP3     1826     TIP3     H2       HT       0.417000       1.00800           0
     22717 TIP3     1827     TIP3     OH2      OT      -0.834000       15.9994           0
     22718 TIP3     1827     TIP3     H1       HT       0.417000       1.00800           0
     22719 TIP3     1827     TIP3     H2       HT       0.417000       1.00800           0
     22720 TIP3     1828     TIP3     OH2      OT      -0.834000       15.9994           0
     22721 TIP3     1828     TIP3     H1       HT       0.417000       1.00800           0
     22722 TIP3     1828     TIP3     H2       HT       0.417000       1.00800           0
     22723 TIP3     1829     TIP3     OH2      OT      -0.834000       15.9994           0
     22724 TIP3     1829     TIP3     H1       HT       0.417000       1.00800           0
     22725 TIP3     1829     TIP3     H2       HT       0.417000       1.00800           0
     22726 TIP3     1830     TIP3     OH2      OT      -0.834000       15.9994           0
     22727 TIP3     1830     TIP3     H1       HT       0.417000       1.00800           0
     22728 TIP3     1830     TIP3     H2       HT       0.417000       1.00800           0
     22729 TIP3     1831     TIP3     OH2      OT      -0.834000       15.9994           0
     22730 TIP3     1831     TIP3     H1       HT       0.417000       1.00800           0
     22731 TIP3     1831     TIP3     H2       HT       0.417000       1.00800           0
     22732 TIP3     1832     TIP3     OH2      OT      -0.834000       15.9994           0
     22733 TIP3     1832     TIP3     H1       HT       0.417000       1.00800           0
     22734 TIP3     1832     TIP3     H2       HT       0.417000       1.00800           0
     22735 TIP3     1833     TIP3     OH2      OT      -0.834000       15.9994           0
     22736 TIP3     1833     TIP3     H1       HT       0.417000       1.00800           0
     22737 TIP3     1833     TIP3     H2       HT       0.417000       1.00800           0
     22738 TIP3     1834     TIP3     OH2      OT      -0.834000       15.9994           0
     22739 TIP3     1834     TIP3     H1       HT       0.417000       1.00800           0
     22740 TIP3     1834     TIP3     H2       HT       0.417000       1.00800           0
     22741 TIP3     1835     TIP3     OH2      OT      -0.834000       15.9994           0
     22742 TIP3     1835     TIP3     H1       HT       0.417000       1.00800           0
     22743 TIP3     1835     TIP3     H2       HT       0.417000       1.00800           0
     22744 TIP3     1836     TIP3     OH2      OT      -0.834000       15.9994           0
     22745 TIP3     1836     TIP3     H1       HT       0.417000       1.00800           0
     22746 TIP3     1836     TIP3     H2       HT       0.417000       1.00800           0
     22747 TIP3     1837     TIP3     OH2      OT      -0.834000       15.9994           0
     22748 TIP3     1837     TIP3     H1       HT       0.417000       1.00800           0
     22749 TIP3     1837     TIP3     H2       HT       0.417000       1.00800           0
     22750 TIP3     1838     TIP3     OH2      OT      -0.834000       15.9994           0
     22751 TIP3     1838     TIP3     H1       HT       0.417000       1.00800           0
     22752 TIP3     1838     TIP3     H2       HT       0.417000       1.00800           0
     22753 TIP3     1839     TIP3     OH2      OT      -0.834000       15.9994           0
     22754 TIP3     1839     TIP3     H1       HT       0.417000       1.00800           0
     22755 TIP3     1839     TIP3     H2       HT       0.417000       1.00800           0
     22756 TIP3     1840     TIP3     OH2      OT      -0.834000       15.9994           0
     22757 TIP3     1840     TIP3     H1       HT       0.417000       1.00800           0
     22758 TIP3     1840     TIP3     H2       HT       0.417000       1.00800           0
     22759 TIP3     1841     TIP3     OH2      OT      -0.834000       15.9994           0
     22760 TIP3     1841     TIP3     H1       HT       0.417000       1.00800           0
     22761 TIP3     1841     TIP3     H2       HT       0.417000       1.00800           0
     22762 TIP3     1842     TIP3     OH2      OT      -0.834000       15.9994           0
     22763 TIP3     1842     TIP3     H1       HT       0.417000       1.00800           0
     22764 TIP3     1842     TIP3     H2       HT       0.417000       1.00800           0
     22765 TIP3     1843     TIP3     OH2      OT      -0.834000       15.9994           0
     22766 TIP3     1843     TIP3     H1       HT       0.417000       1.00800           0
     22767 TIP3     1843     TIP3     H2       HT       0.417000       1.00800           0
     22768 TIP3     1844     TIP3     OH2      OT      -0.834000       15.9994           0
     22769 TIP3     1844     TIP3     H1       HT       0.417000       1.00800           0
     22770 TIP3     1844     TIP3     H2       HT       0.417000       1.00800           0
     22771 TIP3     1845     TIP3     OH2      OT      -0.834000       15.9994           0
     22772 TIP3     1845     TIP3     H1       HT       0.417000       1.00800           0
     22773 TIP3     1845     TIP3     H2       HT       0.417000       1.00800           0
     22774 TIP3     1846     TIP3     OH2      OT      -0.834000       15.9994           0
     22775 TIP3     1846     TIP3     H1       HT       0.417000       1.00800           0
     22776 TIP3     1846     TIP3     H2       HT       0.417000       1.00800           0
     22777 TIP3     1847     TIP3     OH2      OT      -0.834000       15.9994           0
     22778 TIP3     1847     TIP3     H1       HT       0.417000       1.00800           0
     22779 TIP3     1847     TIP3     H2       HT       0.417000       1.00800           0
     22780 TIP3     1848     TIP3     OH2      OT      -0.834000       15.9994           0
     22781 TIP3     1848     TIP3     H1       HT       0.417000       1.00800           0
     22782 TIP3     1848     TIP3     H2       HT       0.417000       1.00800           0
     22783 TIP3     1849     TIP3     OH2      OT      -0.834000       15.9994           0
     22784 TIP3     1849     TIP3     H1       HT       0.417000       1.00800           0
     22785 TIP3     1849     TIP3     H2       HT       0.417000       1.00800           0
     22786 TIP3     1850     TIP3     OH2      OT      -0.834000       15.9994           0
     22787 TIP3     1850     TIP3     H1       HT       0.417000       1.00800           0
     22788 TIP3     1850     TIP3     H2       HT       0.417000       1.00800           0
     22789 TIP3     1851     TIP3     OH2      OT      -0.834000       15.9994           0
     22790 TIP3     1851     TIP3     H1       HT       0.417000       1.00800           0
     22791 TIP3     1851     TIP3     H2       HT       0.417000       1.00800           0
     22792 TIP3     1852     TIP3     OH2      OT      -0.834000       15.9994           0
     22793 TIP3     1852     TIP3     H1       HT       0.417000       1.00800           0
     22794 TIP3     1852     TIP3     H2       HT       0.417000       1.00800           0
     22795 TIP3     1853     TIP3     OH2      OT      -0.834000       15.9994           0
     22796 TIP3     1853     TIP3     H1       HT       0.417000       1.00800           0
     22797 TIP3     1853     TIP3     H2       HT       0.417000       1.00800           0
     22798 TIP3     1854     TIP3     OH2      OT      -0.834000       15.9994           0
     22799 TIP3     1854     TIP3     H1       HT       0.417000       1.00800           0
     22800 TIP3     1854     TIP3     H2       HT       0.417000       1.00800           0
     22801 TIP3     1855     TIP3     OH2      OT      -0.834000       15.9994           0
     22802 TIP3     1855     TIP3     H1       HT       0.417000       1.00800           0
     22803 TIP3     1855     TIP3     H2       HT       0.417000       1.00800           0
     22804 TIP3     1856     TIP3     OH2      OT      -0.834000       15.9994           0
     22805 TIP3     1856     TIP3     H1       HT       0.417000       1.00800           0
     22806 TIP3     1856     TIP3     H2       HT       0.417000       1.00800           0
     22807 TIP3     1857     TIP3     OH2      OT      -0.834000       15.9994           0
     22808 TIP3     1857     TIP3     H1       HT       0.417000       1.00800           0
     22809 TIP3     1857     TIP3     H2       HT       0.417000       1.00800           0
     22810 TIP3     1858     TIP3     OH2      OT      -0.834000       15.9994           0
     22811 TIP3     1858     TIP3     H1       HT       0.417000       1.00800           0
     22812 TIP3     1858     TIP3     H2       HT       0.417000       1.00800           0
     22813 TIP3     1859     TIP3     OH2      OT      -0.834000       15.9994           0
     22814 TIP3     1859     TIP3     H1       HT       0.417000       1.00800           0
     22815 TIP3     1859     TIP3     H2       HT       0.417000       1.00800           0
     22816 TIP3     1860     TIP3     OH2      OT      -0.834000       15.9994           0
     22817 TIP3     1860     TIP3     H1       HT       0.417000       1.00800           0
     22818 TIP3     1860     TIP3     H2       HT       0.417000       1.00800           0
     22819 TIP3     1861     TIP3     OH2      OT      -0.834000       15.9994           0
     22820 TIP3     1861     TIP3     H1       HT       0.417000       1.00800           0
     22821 TIP3     1861     TIP3     H2       HT       0.417000       1.00800           0
     22822 TIP3     1862     TIP3     OH2      OT      -0.834000       15.9994           0
     22823 TIP3     1862     TIP3     H1       HT       0.417000       1.00800           0
     22824 TIP3     1862     TIP3     H2       HT       0.417000       1.00800           0
     22825 TIP3     1863     TIP3     OH2      OT      -0.834000       15.9994           0
     22826 TIP3     1863     TIP3     H1       HT       0.417000       1.00800           0
     22827 TIP3     1863     TIP3     H2       HT       0.417000       1.00800           0
     22828 TIP3     1864     TIP3     OH2      OT      -0.834000       15.9994           0
     22829 TIP3     1864     TIP3     H1       HT       0.417000       1.00800           0
     22830 TIP3     1864     TIP3     H2       HT       0.417000       1.00800           0
     22831 TIP3     1865     TIP3     OH2      OT      -0.834000       15.9994           0
     22832 TIP3     1865     TIP3     H1       HT       0.417000       1.00800           0
     22833 TIP3     1865     TIP3     H2       HT       0.417000       1.00800           0
     22834 TIP3     1866     TIP3     OH2      OT      -0.834000       15.9994           0
     22835 TIP3     1866     TIP3     H1       HT       0.417000       1.00800           0
     22836 TIP3     1866     TIP3     H2       HT       0.417000       1.00800           0
     22837 TIP3     1867     TIP3     OH2      OT      -0.834000       15.9994           0
     22838 TIP3     1867     TIP3     H1       HT       0.417000       1.00800           0
     22839 TIP3     1867     TIP3     H2       HT       0.417000       1.00800           0
     22840 TIP3     1868     TIP3     OH2      OT      -0.834000       15.9994           0
     22841 TIP3     1868     TIP3     H1       HT       0.417000       1.00800           0
     22842 TIP3     1868     TIP3     H2       HT       0.417000       1.00800           0
     22843 TIP3     1869     TIP3     OH2      OT      -0.834000       15.9994           0
     22844 TIP3     1869     TIP3     H1       HT       0.417000       1.00800           0
     22845 TIP3     1869     TIP3     H2       HT       0.417000       1.00800           0
     22846 TIP3     1870     TIP3     OH2      OT      -0.834000       15.9994           0
     22847 TIP3     1870     TIP3     H1       HT       0.417000       1.00800           0
     22848 TIP3     1870     TIP3     H2       HT       0.417000       1.00800           0
     22849 TIP3     1871     TIP3     OH2      OT      -0.834000       15.9994           0
     22850 TIP3     1871     TIP3     H1       HT       0.417000       1.00800           0
     22851 TIP3     1871     TIP3     H2       HT       0.417000       1.00800           0
     22852 TIP3     1872     TIP3     OH2      OT      -0.834000       15.9994           0
     22853 TIP3     1872     TIP3     H1       HT       0.417000       1.00800           0
     22854 TIP3     1872     TIP3     H2       HT       0.417000       1.00800           0
     22855 TIP3     1873     TIP3     OH2      OT      -0.834000       15.9994           0
     22856 TIP3     1873     TIP3     H1       HT       0.417000       1.00800           0
     22857 TIP3     1873     TIP3     H2       HT       0.417000       1.00800           0
     22858 TIP3     1874     TIP3     OH2      OT      -0.834000       15.9994           0
     22859 TIP3     1874     TIP3     H1       HT       0.417000       1.00800           0
     22860 TIP3     1874     TIP3     H2       HT       0.417000       1.00800           0
     22861 TIP3     1875     TIP3     OH2      OT      -0.834000       15.9994           0
     22862 TIP3     1875     TIP3     H1       HT       0.417000       1.00800           0
     22863 TIP3     1875     TIP3     H2       HT       0.417000       1.00800           0
     22864 TIP3     1876     TIP3     OH2      OT      -0.834000       15.9994           0
     22865 TIP3     1876     TIP3     H1       HT       0.417000       1.00800           0
     22866 TIP3     1876     TIP3     H2       HT       0.417000       1.00800           0
     22867 TIP3     1877     TIP3     OH2      OT      -0.834000       15.9994           0
     22868 TIP3     1877     TIP3     H1       HT       0.417000       1.00800           0
     22869 TIP3     1877     TIP3     H2       HT       0.417000       1.00800           0
     22870 TIP3     1878     TIP3     OH2      OT      -0.834000       15.9994           0
     22871 TIP3     1878     TIP3     H1       HT       0.417000       1.00800           0
     22872 TIP3     1878     TIP3     H2       HT       0.417000       1.00800           0
     22873 TIP3     1879     TIP3     OH2      OT      -0.834000       15.9994           0
     22874 TIP3     1879     TIP3     H1       HT       0.417000       1.00800           0
     22875 TIP3     1879     TIP3     H2       HT       0.417000       1.00800           0
     22876 TIP3     1880     TIP3     OH2      OT      -0.834000       15.9994           0
     22877 TIP3     1880     TIP3     H1       HT       0.417000       1.00800           0
     22878 TIP3     1880     TIP3     H2       HT       0.417000       1.00800           0
     22879 TIP3     1881     TIP3     OH2      OT      -0.834000       15.9994           0
     22880 TIP3     1881     TIP3     H1       HT       0.417000       1.00800           0
     22881 TIP3     1881     TIP3     H2       HT       0.417000       1.00800           0
     22882 TIP3     1882     TIP3     OH2      OT      -0.834000       15.9994           0
     22883 TIP3     1882     TIP3     H1       HT       0.417000       1.00800           0
     22884 TIP3     1882     TIP3     H2       HT       0.417000       1.00800           0
     22885 TIP3     1883     TIP3     OH2      OT      -0.834000       15.9994           0
     22886 TIP3     1883     TIP3     H1       HT       0.417000       1.00800           0
     22887 TIP3     1883     TIP3     H2       HT       0.417000       1.00800           0
     22888 TIP3     1884     TIP3     OH2      OT      -0.834000       15.9994           0
     22889 TIP3     1884     TIP3     H1       HT       0.417000       1.00800           0
     22890 TIP3     1884     TIP3     H2       HT       0.417000       1.00800           0
     22891 TIP3     1885     TIP3     OH2      OT      -0.834000       15.9994           0
     22892 TIP3     1885     TIP3     H1       HT       0.417000       1.00800           0
     22893 TIP3     1885     TIP3     H2       HT       0.417000       1.00800           0
     22894 TIP3     1886     TIP3     OH2      OT      -0.834000       15.9994           0
     22895 TIP3     1886     TIP3     H1       HT       0.417000       1.00800           0
     22896 TIP3     1886     TIP3     H2       HT       0.417000       1.00800           0
     22897 TIP3     1887     TIP3     OH2      OT      -0.834000       15.9994           0
     22898 TIP3     1887     TIP3     H1       HT       0.417000       1.00800           0
     22899 TIP3     1887     TIP3     H2       HT       0.417000       1.00800           0
     22900 TIP3     1888     TIP3     OH2      OT      -0.834000       15.9994           0
     22901 TIP3     1888     TIP3     H1       HT       0.417000       1.00800           0
     22902 TIP3     1888     TIP3     H2       HT       0.417000       1.00800           0
     22903 TIP3     1889     TIP3     OH2      OT      -0.834000       15.9994           0
     22904 TIP3     1889     TIP3     H1       HT       0.417000       1.00800           0
     22905 TIP3     1889     TIP3     H2       HT       0.417000       1.00800           0
     22906 TIP3     1890     TIP3     OH2      OT      -0.834000       15.9994           0
     22907 TIP3     1890     TIP3     H1       HT       0.417000       1.00800           0
     22908 TIP3     1890     TIP3     H2       HT       0.417000       1.00800           0
     22909 TIP3     1891     TIP3     OH2      OT      -0.834000       15.9994           0
     22910 TIP3     1891     TIP3     H1       HT       0.417000       1.00800           0
     22911 TIP3     1891     TIP3     H2       HT       0.417000       1.00800           0
     22912 TIP3     1892     TIP3     OH2      OT      -0.834000       15.9994           0
     22913 TIP3     1892     TIP3     H1       HT       0.417000       1.00800           0
     22914 TIP3     1892     TIP3     H2       HT       0.417000       1.00800           0
     22915 TIP3     1893     TIP3     OH2      OT      -0.834000       15.9994           0
     22916 TIP3     1893     TIP3     H1       HT       0.417000       1.00800           0
     22917 TIP3     1893     TIP3     H2       HT       0.417000       1.00800           0
     22918 TIP3     1894     TIP3     OH2      OT      -0.834000       15.9994           0
     22919 TIP3     1894     TIP3     H1       HT       0.417000       1.00800           0
     22920 TIP3     1894     TIP3     H2       HT       0.417000       1.00800           0
     22921 TIP3     1895     TIP3     OH2      OT      -0.834000       15.9994           0
     22922 TIP3     1895     TIP3     H1       HT       0.417000       1.00800           0
     22923 TIP3     1895     TIP3     H2       HT       0.417000       1.00800           0
     22924 TIP3     1896     TIP3     OH2      OT      -0.834000       15.9994           0
     22925 TIP3     1896     TIP3     H1       HT       0.417000       1.00800           0
     22926 TIP3     1896     TIP3     H2       HT       0.417000       1.00800           0
     22927 TIP3     1897     TIP3     OH2      OT      -0.834000       15.9994           0
     22928 TIP3     1897     TIP3     H1       HT       0.417000       1.00800           0
     22929 TIP3     1897     TIP3     H2       HT       0.417000       1.00800           0
     22930 TIP3     1898     TIP3     OH2      OT      -0.834000       15.9994           0
     22931 TIP3     1898     TIP3     H1       HT       0.417000       1.00800           0
     22932 TIP3     1898     TIP3     H2       HT       0.417000       1.00800           0
     22933 TIP3     1899     TIP3     OH2      OT      -0.834000       15.9994           0
     22934 TIP3     1899     TIP3     H1       HT       0.417000       1.00800           0
     22935 TIP3     1899     TIP3     H2       HT       0.417000       1.00800           0
     22936 TIP3     1900     TIP3     OH2      OT      -0.834000       15.9994           0
     22937 TIP3     1900     TIP3     H1       HT       0.417000       1.00800           0
     22938 TIP3     1900     TIP3     H2       HT       0.417000       1.00800           0
     22939 TIP3     1901     TIP3     OH2      OT      -0.834000       15.9994           0
     22940 TIP3     1901     TIP3     H1       HT       0.417000       1.00800           0
     22941 TIP3     1901     TIP3     H2       HT       0.417000       1.00800           0
     22942 TIP3     1902     TIP3     OH2      OT      -0.834000       15.9994           0
     22943 TIP3     1902     TIP3     H1       HT       0.417000       1.00800           0
     22944 TIP3     1902     TIP3     H2       HT       0.417000       1.00800           0
     22945 TIP3     1903     TIP3     OH2      OT      -0.834000       15.9994           0
     22946 TIP3     1903     TIP3     H1       HT       0.417000       1.00800           0
     22947 TIP3     1903     TIP3     H2       HT       0.417000       1.00800           0
     22948 TIP3     1904     TIP3     OH2      OT      -0.834000       15.9994           0
     22949 TIP3     1904     TIP3     H1       HT       0.417000       1.00800           0
     22950 TIP3     1904     TIP3     H2       HT       0.417000       1.00800           0
     22951 TIP3     1905     TIP3     OH2      OT      -0.834000       15.9994           0
     22952 TIP3     1905     TIP3     H1       HT       0.417000       1.00800           0
     22953 TIP3     1905     TIP3     H2       HT       0.417000       1.00800           0
     22954 TIP3     1906     TIP3     OH2      OT      -0.834000       15.9994           0
     22955 TIP3     1906     TIP3     H1       HT       0.417000       1.00800           0
     22956 TIP3     1906     TIP3     H2       HT       0.417000       1.00800           0
     22957 TIP3     1907     TIP3     OH2      OT      -0.834000       15.9994           0
     22958 TIP3     1907     TIP3     H1       HT       0.417000       1.00800           0
     22959 TIP3     1907     TIP3     H2       HT       0.417000       1.00800           0
     22960 TIP3     1908     TIP3     OH2      OT      -0.834000       15.9994           0
     22961 TIP3     1908     TIP3     H1       HT       0.417000       1.00800           0
     22962 TIP3     1908     TIP3     H2       HT       0.417000       1.00800           0
     22963 TIP3     1909     TIP3     OH2      OT      -0.834000       15.9994           0
     22964 TIP3     1909     TIP3     H1       HT       0.417000       1.00800           0
     22965 TIP3     1909     TIP3     H2       HT       0.417000       1.00800           0
     22966 TIP3     1910     TIP3     OH2      OT      -0.834000       15.9994           0
     22967 TIP3     1910     TIP3     H1       HT       0.417000       1.00800           0
     22968 TIP3     1910     TIP3     H2       HT       0.417000       1.00800           0
     22969 TIP3     1911     TIP3     OH2      OT      -0.834000       15.9994           0
     22970 TIP3     1911     TIP3     H1       HT       0.417000       1.00800           0
     22971 TIP3     1911     TIP3     H2       HT       0.417000       1.00800           0
     22972 TIP3     1912     TIP3     OH2      OT      -0.834000       15.9994           0
     22973 TIP3     1912     TIP3     H1       HT       0.417000       1.00800           0
     22974 TIP3     1912     TIP3     H2       HT       0.417000       1.00800           0
     22975 TIP3     1913     TIP3     OH2      OT      -0.834000       15.9994           0
     22976 TIP3     1913     TIP3     H1       HT       0.417000       1.00800           0
     22977 TIP3     1913     TIP3     H2       HT       0.417000       1.00800           0
     22978 TIP3     1914     TIP3     OH2      OT      -0.834000       15.9994           0
     22979 TIP3     1914     TIP3     H1       HT       0.417000       1.00800           0
     22980 TIP3     1914     TIP3     H2       HT       0.417000       1.00800           0
     22981 TIP3     1915     TIP3     OH2      OT      -0.834000       15.9994           0
     22982 TIP3     1915     TIP3     H1       HT       0.417000       1.00800           0
     22983 TIP3     1915     TIP3     H2       HT       0.417000       1.00800           0
     22984 TIP3     1916     TIP3     OH2      OT      -0.834000       15.9994           0
     22985 TIP3     1916     TIP3     H1       HT       0.417000       1.00800           0
     22986 TIP3     1916     TIP3     H2       HT       0.417000       1.00800           0
     22987 TIP3     1917     TIP3     OH2      OT      -0.834000       15.9994           0
     22988 TIP3     1917     TIP3     H1       HT       0.417000       1.00800           0
     22989 TIP3     1917     TIP3     H2       HT       0.417000       1.00800           0
     22990 TIP3     1918     TIP3     OH2      OT      -0.834000       15.9994           0
     22991 TIP3     1918     TIP3     H1       HT       0.417000       1.00800           0
     22992 TIP3     1918     TIP3     H2       HT       0.417000       1.00800           0
     22993 TIP3     1919     TIP3     OH2      OT      -0.834000       15.9994           0
     22994 TIP3     1919     TIP3     H1       HT       0.417000       1.00800           0
     22995 TIP3     1919     TIP3     H2       HT       0.417000       1.00800           0
     22996 TIP3     1920     TIP3     OH2      OT      -0.834000       15.9994           0
     22997 TIP3     1920     TIP3     H1       HT       0.417000       1.00800           0
     22998 TIP3     1920     TIP3     H2       HT       0.417000       1.00800           0
     22999 TIP3     1921     TIP3     OH2      OT      -0.834000       15.9994           0
     23000 TIP3     1921     TIP3     H1       HT       0.417000       1.00800           0
     23001 TIP3     1921     TIP3     H2       HT       0.417000       1.00800           0
     23002 TIP3     1922     TIP3     OH2      OT      -0.834000       15.9994           0
     23003 TIP3     1922     TIP3     H1       HT       0.417000       1.00800           0
     23004 TIP3     1922     TIP3     H2       HT       0.417000       1.00800           0
     23005 TIP3     1923     TIP3     OH2      OT      -0.834000       15.9994           0
     23006 TIP3     1923     TIP3     H1       HT       0.417000       1.00800           0
     23007 TIP3     1923     TIP3     H2       HT       0.417000       1.00800           0
     23008 TIP3     1924     TIP3     OH2      OT      -0.834000       15.9994           0
     23009 TIP3     1924     TIP3     H1       HT       0.417000       1.00800           0
     23010 TIP3     1924     TIP3     H2       HT       0.417000       1.00800           0
     23011 TIP3     1925     TIP3     OH2      OT      -0.834000       15.9994           0
     23012 TIP3     1925     TIP3     H1       HT       0.417000       1.00800           0
     23013 TIP3     1925     TIP3     H2       HT       0.417000       1.00800           0
     23014 TIP3     1926     TIP3     OH2      OT      -0.834000       15.9994           0
     23015 TIP3     1926     TIP3     H1       HT       0.417000       1.00800           0
     23016 TIP3     1926     TIP3     H2       HT       0.417000       1.00800           0
     23017 TIP3     1927     TIP3     OH2      OT      -0.834000       15.9994           0
     23018 TIP3     1927     TIP3     H1       HT       0.417000       1.00800           0
     23019 TIP3     1927     TIP3     H2       HT       0.417000       1.00800           0
     23020 TIP3     1928     TIP3     OH2      OT      -0.834000       15.9994           0
     23021 TIP3     1928     TIP3     H1       HT       0.417000       1.00800           0
     23022 TIP3     1928     TIP3     H2       HT       0.417000       1.00800           0
     23023 TIP3     1929     TIP3     OH2      OT      -0.834000       15.9994           0
     23024 TIP3     1929     TIP3     H1       HT       0.417000       1.00800           0
     23025 TIP3     1929     TIP3     H2       HT       0.417000       1.00800           0
     23026 TIP3     1930     TIP3     OH2      OT      -0.834000       15.9994           0
     23027 TIP3     1930     TIP3     H1       HT       0.417000       1.00800           0
     23028 TIP3     1930     TIP3     H2       HT       0.417000       1.00800           0
     23029 TIP3     1931     TIP3     OH2      OT      -0.834000       15.9994           0
     23030 TIP3     1931     TIP3     H1       HT       0.417000       1.00800           0
     23031 TIP3     1931     TIP3     H2       HT       0.417000       1.00800           0
     23032 TIP3     1932     TIP3     OH2      OT      -0.834000       15.9994           0
     23033 TIP3     1932     TIP3     H1       HT       0.417000       1.00800           0
     23034 TIP3     1932     TIP3     H2       HT       0.417000       1.00800           0
     23035 TIP3     1933     TIP3     OH2      OT      -0.834000       15.9994           0
     23036 TIP3     1933     TIP3     H1       HT       0.417000       1.00800           0
     23037 TIP3     1933     TIP3     H2       HT       0.417000       1.00800           0
     23038 TIP3     1934     TIP3     OH2      OT      -0.834000       15.9994           0
     23039 TIP3     1934     TIP3     H1       HT       0.417000       1.00800           0
     23040 TIP3     1934     TIP3     H2       HT       0.417000       1.00800           0
     23041 TIP3     1935     TIP3     OH2      OT      -0.834000       15.9994           0
     23042 TIP3     1935     TIP3     H1       HT       0.417000       1.00800           0
     23043 TIP3     1935     TIP3     H2       HT       0.417000       1.00800           0
     23044 TIP3     1936     TIP3     OH2      OT      -0.834000       15.9994           0
     23045 TIP3     1936     TIP3     H1       HT       0.417000       1.00800           0
     23046 TIP3     1936     TIP3     H2       HT       0.417000       1.00800           0
     23047 TIP3     1937     TIP3     OH2      OT      -0.834000       15.9994           0
     23048 TIP3     1937     TIP3     H1       HT       0.417000       1.00800           0
     23049 TIP3     1937     TIP3     H2       HT       0.417000       1.00800           0
     23050 TIP3     1938     TIP3     OH2      OT      -0.834000       15.9994           0
     23051 TIP3     1938     TIP3     H1       HT       0.417000       1.00800           0
     23052 TIP3     1938     TIP3     H2       HT       0.417000       1.00800           0
     23053 TIP3     1939     TIP3     OH2      OT      -0.834000       15.9994           0
     23054 TIP3     1939     TIP3     H1       HT       0.417000       1.00800           0
     23055 TIP3     1939     TIP3     H2       HT       0.417000       1.00800           0
     23056 TIP3     1940     TIP3     OH2      OT      -0.834000       15.9994           0
     23057 TIP3     1940     TIP3     H1       HT       0.417000       1.00800           0
     23058 TIP3     1940     TIP3     H2       HT       0.417000       1.00800           0
     23059 TIP3     1941     TIP3     OH2      OT      -0.834000       15.9994           0
     23060 TIP3     1941     TIP3     H1       HT       0.417000       1.00800           0
     23061 TIP3     1941     TIP3     H2       HT       0.417000       1.00800           0
     23062 TIP3     1942     TIP3     OH2      OT      -0.834000       15.9994           0
     23063 TIP3     1942     TIP3     H1       HT       0.417000       1.00800           0
     23064 TIP3     1942     TIP3     H2       HT       0.417000       1.00800           0
     23065 TIP3     1943     TIP3     OH2      OT      -0.834000       15.9994           0
     23066 TIP3     1943     TIP3     H1       HT       0.417000       1.00800           0
     23067 TIP3     1943     TIP3     H2       HT       0.417000       1.00800           0
     23068 TIP3     1944     TIP3     OH2      OT      -0.834000       15.9994           0
     23069 TIP3     1944     TIP3     H1       HT       0.417000       1.00800           0
     23070 TIP3     1944     TIP3     H2       HT       0.417000       1.00800           0
     23071 TIP3     1945     TIP3     OH2      OT      -0.834000       15.9994           0
     23072 TIP3     1945     TIP3     H1       HT       0.417000       1.00800           0
     23073 TIP3     1945     TIP3     H2       HT       0.417000       1.00800           0
     23074 TIP3     1946     TIP3     OH2      OT      -0.834000       15.9994           0
     23075 TIP3     1946     TIP3     H1       HT       0.417000       1.00800           0
     23076 TIP3     1946     TIP3     H2       HT       0.417000       1.00800           0
     23077 TIP3     1947     TIP3     OH2      OT      -0.834000       15.9994           0
     23078 TIP3     1947     TIP3     H1       HT       0.417000       1.00800           0
     23079 TIP3     1947     TIP3     H2       HT       0.417000       1.00800           0
     23080 TIP3     1948     TIP3     OH2      OT      -0.834000       15.9994           0
     23081 TIP3     1948     TIP3     H1       HT       0.417000       1.00800           0
     23082 TIP3     1948     TIP3     H2       HT       0.417000       1.00800           0
     23083 TIP3     1949     TIP3     OH2      OT      -0.834000       15.9994           0
     23084 TIP3     1949     TIP3     H1       HT       0.417000       1.00800           0
     23085 TIP3     1949     TIP3     H2       HT       0.417000       1.00800           0
     23086 TIP3     1950     TIP3     OH2      OT      -0.834000       15.9994           0
     23087 TIP3     1950     TIP3     H1       HT       0.417000       1.00800           0
     23088 TIP3     1950     TIP3     H2       HT       0.417000       1.00800           0
     23089 TIP3     1951     TIP3     OH2      OT      -0.834000       15.9994           0
     23090 TIP3     1951     TIP3     H1       HT       0.417000       1.00800           0
     23091 TIP3     1951     TIP3     H2       HT       0.417000       1.00800           0
     23092 TIP3     1952     TIP3     OH2      OT      -0.834000       15.9994           0
     23093 TIP3     1952     TIP3     H1       HT       0.417000       1.00800           0
     23094 TIP3     1952     TIP3     H2       HT       0.417000       1.00800           0
     23095 TIP3     1953     TIP3     OH2      OT      -0.834000       15.9994           0
     23096 TIP3     1953     TIP3     H1       HT       0.417000       1.00800           0
     23097 TIP3     1953     TIP3     H2       HT       0.417000       1.00800           0
     23098 TIP3     1954     TIP3     OH2      OT      -0.834000       15.9994           0
     23099 TIP3     1954     TIP3     H1       HT       0.417000       1.00800           0
     23100 TIP3     1954     TIP3     H2       HT       0.417000       1.00800           0
     23101 TIP3     1955     TIP3     OH2      OT      -0.834000       15.9994           0
     23102 TIP3     1955     TIP3     H1       HT       0.417000       1.00800           0
     23103 TIP3     1955     TIP3     H2       HT       0.417000       1.00800           0
     23104 TIP3     1956     TIP3     OH2      OT      -0.834000       15.9994           0
     23105 TIP3     1956     TIP3     H1       HT       0.417000       1.00800           0
     23106 TIP3     1956     TIP3     H2       HT       0.417000       1.00800           0
     23107 TIP3     1957     TIP3     OH2      OT      -0.834000       15.9994           0
     23108 TIP3     1957     TIP3     H1       HT       0.417000       1.00800           0
     23109 TIP3     1957     TIP3     H2       HT       0.417000       1.00800           0
     23110 TIP3     1958     TIP3     OH2      OT      -0.834000       15.9994           0
     23111 TIP3     1958     TIP3     H1       HT       0.417000       1.00800           0
     23112 TIP3     1958     TIP3     H2       HT       0.417000       1.00800           0
     23113 TIP3     1959     TIP3     OH2      OT      -0.834000       15.9994           0
     23114 TIP3     1959     TIP3     H1       HT       0.417000       1.00800           0
     23115 TIP3     1959     TIP3     H2       HT       0.417000       1.00800           0
     23116 TIP3     1960     TIP3     OH2      OT      -0.834000       15.9994           0
     23117 TIP3     1960     TIP3     H1       HT       0.417000       1.00800           0
     23118 TIP3     1960     TIP3     H2       HT       0.417000       1.00800           0
     23119 TIP3     1961     TIP3     OH2      OT      -0.834000       15.9994           0
     23120 TIP3     1961     TIP3     H1       HT       0.417000       1.00800           0
     23121 TIP3     1961     TIP3     H2       HT       0.417000       1.00800           0
     23122 TIP3     1962     TIP3     OH2      OT      -0.834000       15.9994           0
     23123 TIP3     1962     TIP3     H1       HT       0.417000       1.00800           0
     23124 TIP3     1962     TIP3     H2       HT       0.417000       1.00800           0
     23125 TIP3     1963     TIP3     OH2      OT      -0.834000       15.9994           0
     23126 TIP3     1963     TIP3     H1       HT       0.417000       1.00800           0
     23127 TIP3     1963     TIP3     H2       HT       0.417000       1.00800           0
     23128 TIP3     1964     TIP3     OH2      OT      -0.834000       15.9994           0
     23129 TIP3     1964     TIP3     H1       HT       0.417000       1.00800           0
     23130 TIP3     1964     TIP3     H2       HT       0.417000       1.00800           0
     23131 TIP3     1965     TIP3     OH2      OT      -0.834000       15.9994           0
     23132 TIP3     1965     TIP3     H1       HT       0.417000       1.00800           0
     23133 TIP3     1965     TIP3     H2       HT       0.417000       1.00800           0
     23134 TIP3     1966     TIP3     OH2      OT      -0.834000       15.9994           0
     23135 TIP3     1966     TIP3     H1       HT       0.417000       1.00800           0
     23136 TIP3     1966     TIP3     H2       HT       0.417000       1.00800           0
     23137 TIP3     1967     TIP3     OH2      OT      -0.834000       15.9994           0
     23138 TIP3     1967     TIP3     H1       HT       0.417000       1.00800           0
     23139 TIP3     1967     TIP3     H2       HT       0.417000       1.00800           0
     23140 TIP3     1968     TIP3     OH2      OT      -0.834000       15.9994           0
     23141 TIP3     1968     TIP3     H1       HT       0.417000       1.00800           0
     23142 TIP3     1968     TIP3     H2       HT       0.417000       1.00800           0
     23143 TIP3     1969     TIP3     OH2      OT      -0.834000       15.9994           0
     23144 TIP3     1969     TIP3     H1       HT       0.417000       1.00800           0
     23145 TIP3     1969     TIP3     H2       HT       0.417000       1.00800           0
     23146 TIP3     1970     TIP3     OH2      OT      -0.834000       15.9994           0
     23147 TIP3     1970     TIP3     H1       HT       0.417000       1.00800           0
     23148 TIP3     1970     TIP3     H2       HT       0.417000       1.00800           0
     23149 TIP3     1971     TIP3     OH2      OT      -0.834000       15.9994           0
     23150 TIP3     1971     TIP3     H1       HT       0.417000       1.00800           0
     23151 TIP3     1971     TIP3     H2       HT       0.417000       1.00800           0
     23152 TIP3     1972     TIP3     OH2      OT      -0.834000       15.9994           0
     23153 TIP3     1972     TIP3     H1       HT       0.417000       1.00800           0
     23154 TIP3     1972     TIP3     H2       HT       0.417000       1.00800           0
     23155 TIP3     1973     TIP3     OH2      OT      -0.834000       15.9994           0
     23156 TIP3     1973     TIP3     H1       HT       0.417000       1.00800           0
     23157 TIP3     1973     TIP3     H2       HT       0.417000       1.00800           0
     23158 TIP3     1974     TIP3     OH2      OT      -0.834000       15.9994           0
     23159 TIP3     1974     TIP3     H1       HT       0.417000       1.00800           0
     23160 TIP3     1974     TIP3     H2       HT       0.417000       1.00800           0
     23161 TIP3     1975     TIP3     OH2      OT      -0.834000       15.9994           0
     23162 TIP3     1975     TIP3     H1       HT       0.417000       1.00800           0
     23163 TIP3     1975     TIP3     H2       HT       0.417000       1.00800           0
     23164 TIP3     1976     TIP3     OH2      OT      -0.834000       15.9994           0
     23165 TIP3     1976     TIP3     H1       HT       0.417000       1.00800           0
     23166 TIP3     1976     TIP3     H2       HT       0.417000       1.00800           0
     23167 TIP3     1977     TIP3     OH2      OT      -0.834000       15.9994           0
     23168 TIP3     1977     TIP3     H1       HT       0.417000       1.00800           0
     23169 TIP3     1977     TIP3     H2       HT       0.417000       1.00800           0
     23170 TIP3     1978     TIP3     OH2      OT      -0.834000       15.9994           0
     23171 TIP3     1978     TIP3     H1       HT       0.417000       1.00800           0
     23172 TIP3     1978     TIP3     H2       HT       0.417000       1.00800           0
     23173 TIP3     1979     TIP3     OH2      OT      -0.834000       15.9994           0
     23174 TIP3     1979     TIP3     H1       HT       0.417000       1.00800           0
     23175 TIP3     1979     TIP3     H2       HT       0.417000       1.00800           0
     23176 TIP3     1980     TIP3     OH2      OT      -0.834000       15.9994           0
     23177 TIP3     1980     TIP3     H1       HT       0.417000       1.00800           0
     23178 TIP3     1980     TIP3     H2       HT       0.417000       1.00800           0
     23179 TIP3     1981     TIP3     OH2      OT      -0.834000       15.9994           0
     23180 TIP3     1981     TIP3     H1       HT       0.417000       1.00800           0
     23181 TIP3     1981     TIP3     H2       HT       0.417000       1.00800           0
     23182 TIP3     1982     TIP3     OH2      OT      -0.834000       15.9994           0
     23183 TIP3     1982     TIP3     H1       HT       0.417000       1.00800           0
     23184 TIP3     1982     TIP3     H2       HT       0.417000       1.00800           0
     23185 TIP3     1983     TIP3     OH2      OT      -0.834000       15.9994           0
     23186 TIP3     1983     TIP3     H1       HT       0.417000       1.00800           0
     23187 TIP3     1983     TIP3     H2       HT       0.417000       1.00800           0
     23188 TIP3     1984     TIP3     OH2      OT      -0.834000       15.9994           0
     23189 TIP3     1984     TIP3     H1       HT       0.417000       1.00800           0
     23190 TIP3     1984     TIP3     H2       HT       0.417000       1.00800           0
     23191 TIP3     1985     TIP3     OH2      OT      -0.834000       15.9994           0
     23192 TIP3     1985     TIP3     H1       HT       0.417000       1.00800           0
     23193 TIP3     1985     TIP3     H2       HT       0.417000       1.00800           0
     23194 TIP3     1986     TIP3     OH2      OT      -0.834000       15.9994           0
     23195 TIP3     1986     TIP3     H1       HT       0.417000       1.00800           0
     23196 TIP3     1986     TIP3     H2       HT       0.417000       1.00800           0
     23197 TIP3     1987     TIP3     OH2      OT      -0.834000       15.9994           0
     23198 TIP3     1987     TIP3     H1       HT       0.417000       1.00800           0
     23199 TIP3     1987     TIP3     H2       HT       0.417000       1.00800           0
     23200 TIP3     1988     TIP3     OH2      OT      -0.834000       15.9994           0
     23201 TIP3     1988     TIP3     H1       HT       0.417000       1.00800           0
     23202 TIP3     1988     TIP3     H2       HT       0.417000       1.00800           0
     23203 TIP3     1989     TIP3     OH2      OT      -0.834000       15.9994           0
     23204 TIP3     1989     TIP3     H1       HT       0.417000       1.00800           0
     23205 TIP3     1989     TIP3     H2       HT       0.417000       1.00800           0
     23206 TIP3     1990     TIP3     OH2      OT      -0.834000       15.9994           0
     23207 TIP3     1990     TIP3     H1       HT       0.417000       1.00800           0
     23208 TIP3     1990     TIP3     H2       HT       0.417000       1.00800           0
     23209 TIP3     1991     TIP3     OH2      OT      -0.834000       15.9994           0
     23210 TIP3     1991     TIP3     H1       HT       0.417000       1.00800           0
     23211 TIP3     1991     TIP3     H2       HT       0.417000       1.00800           0
     23212 TIP3     1992     TIP3     OH2      OT      -0.834000       15.9994           0
     23213 TIP3     1992     TIP3     H1       HT       0.417000       1.00800           0
     23214 TIP3     1992     TIP3     H2       HT       0.417000       1.00800           0
     23215 TIP3     1993     TIP3     OH2      OT      -0.834000       15.9994           0
     23216 TIP3     1993     TIP3     H1       HT       0.417000       1.00800           0
     23217 TIP3     1993     TIP3     H2       HT       0.417000       1.00800           0
     23218 TIP3     1994     TIP3     OH2      OT      -0.834000       15.9994           0
     23219 TIP3     1994     TIP3     H1       HT       0.417000       1.00800           0
     23220 TIP3     1994     TIP3     H2       HT       0.417000       1.00800           0
     23221 TIP3     1995     TIP3     OH2      OT      -0.834000       15.9994           0
     23222 TIP3     1995     TIP3     H1       HT       0.417000       1.00800           0
     23223 TIP3     1995     TIP3     H2       HT       0.417000       1.00800           0
     23224 TIP3     1996     TIP3     OH2      OT      -0.834000       15.9994           0
     23225 TIP3     1996     TIP3     H1       HT       0.417000       1.00800           0
     23226 TIP3     1996     TIP3     H2       HT       0.417000       1.00800           0
     23227 TIP3     1997     TIP3     OH2      OT      -0.834000       15.9994           0
     23228 TIP3     1997     TIP3     H1       HT       0.417000       1.00800           0
     23229 TIP3     1997     TIP3     H2       HT       0.417000       1.00800           0
     23230 TIP3     1998     TIP3     OH2      OT      -0.834000       15.9994           0
     23231 TIP3     1998     TIP3     H1       HT       0.417000       1.00800           0
     23232 TIP3     1998     TIP3     H2       HT       0.417000       1.00800           0
     23233 TIP3     1999     TIP3     OH2      OT      -0.834000       15.9994           0
     23234 TIP3     1999     TIP3     H1       HT       0.417000       1.00800           0
     23235 TIP3     1999     TIP3     H2       HT       0.417000       1.00800           0
     23236 TIP3     2000     TIP3     OH2      OT      -0.834000       15.9994           0
     23237 TIP3     2000     TIP3     H1       HT       0.417000       1.00800           0
     23238 TIP3     2000     TIP3     H2       HT       0.417000       1.00800           0
     23239 TIP3     2001     TIP3     OH2      OT      -0.834000       15.9994           0
     23240 TIP3     2001     TIP3     H1       HT       0.417000       1.00800           0
     23241 TIP3     2001     TIP3     H2       HT       0.417000       1.00800           0
     23242 TIP3     2002     TIP3     OH2      OT      -0.834000       15.9994           0
     23243 TIP3     2002     TIP3     H1       HT       0.417000       1.00800           0
     23244 TIP3     2002     TIP3     H2       HT       0.417000       1.00800           0
     23245 TIP3     2003     TIP3     OH2      OT      -0.834000       15.9994           0
     23246 TIP3     2003     TIP3     H1       HT       0.417000       1.00800           0
     23247 TIP3     2003     TIP3     H2       HT       0.417000       1.00800           0
     23248 TIP3     2004     TIP3     OH2      OT      -0.834000       15.9994           0
     23249 TIP3     2004     TIP3     H1       HT       0.417000       1.00800           0
     23250 TIP3     2004     TIP3     H2       HT       0.417000       1.00800           0
     23251 TIP3     2005     TIP3     OH2      OT      -0.834000       15.9994           0
     23252 TIP3     2005     TIP3     H1       HT       0.417000       1.00800           0
     23253 TIP3     2005     TIP3     H2       HT       0.417000       1.00800           0
     23254 TIP3     2006     TIP3     OH2      OT      -0.834000       15.9994           0
     23255 TIP3     2006     TIP3     H1       HT       0.417000       1.00800           0
     23256 TIP3     2006     TIP3     H2       HT       0.417000       1.00800           0
     23257 TIP3     2007     TIP3     OH2      OT      -0.834000       15.9994           0
     23258 TIP3     2007     TIP3     H1       HT       0.417000       1.00800           0
     23259 TIP3     2007     TIP3     H2       HT       0.417000       1.00800           0
     23260 TIP3     2008     TIP3     OH2      OT      -0.834000       15.9994           0
     23261 TIP3     2008     TIP3     H1       HT       0.417000       1.00800           0
     23262 TIP3     2008     TIP3     H2       HT       0.417000       1.00800           0
     23263 TIP3     2009     TIP3     OH2      OT      -0.834000       15.9994           0
     23264 TIP3     2009     TIP3     H1       HT       0.417000       1.00800           0
     23265 TIP3     2009     TIP3     H2       HT       0.417000       1.00800           0
     23266 TIP3     2010     TIP3     OH2      OT      -0.834000       15.9994           0
     23267 TIP3     2010     TIP3     H1       HT       0.417000       1.00800           0
     23268 TIP3     2010     TIP3     H2       HT       0.417000       1.00800           0
     23269 TIP3     2011     TIP3     OH2      OT      -0.834000       15.9994           0
     23270 TIP3     2011     TIP3     H1       HT       0.417000       1.00800           0
     23271 TIP3     2011     TIP3     H2       HT       0.417000       1.00800           0
     23272 TIP3     2012     TIP3     OH2      OT      -0.834000       15.9994           0
     23273 TIP3     2012     TIP3     H1       HT       0.417000       1.00800           0
     23274 TIP3     2012     TIP3     H2       HT       0.417000       1.00800           0
     23275 TIP3     2013     TIP3     OH2      OT      -0.834000       15.9994           0
     23276 TIP3     2013     TIP3     H1       HT       0.417000       1.00800           0
     23277 TIP3     2013     TIP3     H2       HT       0.417000       1.00800           0
     23278 TIP3     2014     TIP3     OH2      OT      -0.834000       15.9994           0
     23279 TIP3     2014     TIP3     H1       HT       0.417000       1.00800           0
     23280 TIP3     2014     TIP3     H2       HT       0.417000       1.00800           0
     23281 TIP3     2015     TIP3     OH2      OT      -0.834000       15.9994           0
     23282 TIP3     2015     TIP3     H1       HT       0.417000       1.00800           0
     23283 TIP3     2015     TIP3     H2       HT       0.417000       1.00800           0
     23284 TIP3     2016     TIP3     OH2      OT      -0.834000       15.9994           0
     23285 TIP3     2016     TIP3     H1       HT       0.417000       1.00800           0
     23286 TIP3     2016     TIP3     H2       HT       0.417000       1.00800           0
     23287 TIP3     2017     TIP3     OH2      OT      -0.834000       15.9994           0
     23288 TIP3     2017     TIP3     H1       HT       0.417000       1.00800           0
     23289 TIP3     2017     TIP3     H2       HT       0.417000       1.00800           0
     23290 TIP3     2018     TIP3     OH2      OT      -0.834000       15.9994           0
     23291 TIP3     2018     TIP3     H1       HT       0.417000       1.00800           0
     23292 TIP3     2018     TIP3     H2       HT       0.417000       1.00800           0
     23293 TIP3     2019     TIP3     OH2      OT      -0.834000       15.9994           0
     23294 TIP3     2019     TIP3     H1       HT       0.417000       1.00800           0
     23295 TIP3     2019     TIP3     H2       HT       0.417000       1.00800           0
     23296 TIP3     2020     TIP3     OH2      OT      -0.834000       15.9994           0
     23297 TIP3     2020     TIP3     H1       HT       0.417000       1.00800           0
     23298 TIP3     2020     TIP3     H2       HT       0.417000       1.00800           0
     23299 TIP3     2021     TIP3     OH2      OT      -0.834000       15.9994           0
     23300 TIP3     2021     TIP3     H1       HT       0.417000       1.00800           0
     23301 TIP3     2021     TIP3     H2       HT       0.417000       1.00800           0
     23302 TIP3     2022     TIP3     OH2      OT      -0.834000       15.9994           0
     23303 TIP3     2022     TIP3     H1       HT       0.417000       1.00800           0
     23304 TIP3     2022     TIP3     H2       HT       0.417000       1.00800           0
     23305 TIP3     2023     TIP3     OH2      OT      -0.834000       15.9994           0
     23306 TIP3     2023     TIP3     H1       HT       0.417000       1.00800           0
     23307 TIP3     2023     TIP3     H2       HT       0.417000       1.00800           0
     23308 TIP3     2024     TIP3     OH2      OT      -0.834000       15.9994           0
     23309 TIP3     2024     TIP3     H1       HT       0.417000       1.00800           0
     23310 TIP3     2024     TIP3     H2       HT       0.417000       1.00800           0
     23311 TIP3     2025     TIP3     OH2      OT      -0.834000       15.9994           0
     23312 TIP3     2025     TIP3     H1       HT       0.417000       1.00800           0
     23313 TIP3     2025     TIP3     H2       HT       0.417000       1.00800           0
     23314 TIP3     2026     TIP3     OH2      OT      -0.834000       15.9994           0
     23315 TIP3     2026     TIP3     H1       HT       0.417000       1.00800           0
     23316 TIP3     2026     TIP3     H2       HT       0.417000       1.00800           0
     23317 TIP3     2027     TIP3     OH2      OT      -0.834000       15.9994           0
     23318 TIP3     2027     TIP3     H1       HT       0.417000       1.00800           0
     23319 TIP3     2027     TIP3     H2       HT       0.417000       1.00800           0
     23320 TIP3     2028     TIP3     OH2      OT      -0.834000       15.9994           0
     23321 TIP3     2028     TIP3     H1       HT       0.417000       1.00800           0
     23322 TIP3     2028     TIP3     H2       HT       0.417000       1.00800           0
     23323 TIP3     2029     TIP3     OH2      OT      -0.834000       15.9994           0
     23324 TIP3     2029     TIP3     H1       HT       0.417000       1.00800           0
     23325 TIP3     2029     TIP3     H2       HT       0.417000       1.00800           0
     23326 TIP3     2030     TIP3     OH2      OT      -0.834000       15.9994           0
     23327 TIP3     2030     TIP3     H1       HT       0.417000       1.00800           0
     23328 TIP3     2030     TIP3     H2       HT       0.417000       1.00800           0
     23329 TIP3     2031     TIP3     OH2      OT      -0.834000       15.9994           0
     23330 TIP3     2031     TIP3     H1       HT       0.417000       1.00800           0
     23331 TIP3     2031     TIP3     H2       HT       0.417000       1.00800           0
     23332 TIP3     2032     TIP3     OH2      OT      -0.834000       15.9994           0
     23333 TIP3     2032     TIP3     H1       HT       0.417000       1.00800           0
     23334 TIP3     2032     TIP3     H2       HT       0.417000       1.00800           0
     23335 TIP3     2033     TIP3     OH2      OT      -0.834000       15.9994           0
     23336 TIP3     2033     TIP3     H1       HT       0.417000       1.00800           0
     23337 TIP3     2033     TIP3     H2       HT       0.417000       1.00800           0
     23338 TIP3     2034     TIP3     OH2      OT      -0.834000       15.9994           0
     23339 TIP3     2034     TIP3     H1       HT       0.417000       1.00800           0
     23340 TIP3     2034     TIP3     H2       HT       0.417000       1.00800           0
     23341 TIP3     2035     TIP3     OH2      OT      -0.834000       15.9994           0
     23342 TIP3     2035     TIP3     H1       HT       0.417000       1.00800           0
     23343 TIP3     2035     TIP3     H2       HT       0.417000       1.00800           0
     23344 TIP3     2036     TIP3     OH2      OT      -0.834000       15.9994           0
     23345 TIP3     2036     TIP3     H1       HT       0.417000       1.00800           0
     23346 TIP3     2036     TIP3     H2       HT       0.417000       1.00800           0
     23347 TIP3     2037     TIP3     OH2      OT      -0.834000       15.9994           0
     23348 TIP3     2037     TIP3     H1       HT       0.417000       1.00800           0
     23349 TIP3     2037     TIP3     H2       HT       0.417000       1.00800           0
     23350 TIP3     2038     TIP3     OH2      OT      -0.834000       15.9994           0
     23351 TIP3     2038     TIP3     H1       HT       0.417000       1.00800           0
     23352 TIP3     2038     TIP3     H2       HT       0.417000       1.00800           0
     23353 TIP3     2039     TIP3     OH2      OT      -0.834000       15.9994           0
     23354 TIP3     2039     TIP3     H1       HT       0.417000       1.00800           0
     23355 TIP3     2039     TIP3     H2       HT       0.417000       1.00800           0
     23356 TIP3     2040     TIP3     OH2      OT      -0.834000       15.9994           0
     23357 TIP3     2040     TIP3     H1       HT       0.417000       1.00800           0
     23358 TIP3     2040     TIP3     H2       HT       0.417000       1.00800           0
     23359 TIP3     2041     TIP3     OH2      OT      -0.834000       15.9994           0
     23360 TIP3     2041     TIP3     H1       HT       0.417000       1.00800           0
     23361 TIP3     2041     TIP3     H2       HT       0.417000       1.00800           0
     23362 TIP3     2042     TIP3     OH2      OT      -0.834000       15.9994           0
     23363 TIP3     2042     TIP3     H1       HT       0.417000       1.00800           0
     23364 TIP3     2042     TIP3     H2       HT       0.417000       1.00800           0
     23365 TIP3     2043     TIP3     OH2      OT      -0.834000       15.9994           0
     23366 TIP3     2043     TIP3     H1       HT       0.417000       1.00800           0
     23367 TIP3     2043     TIP3     H2       HT       0.417000       1.00800           0
     23368 TIP3     2044     TIP3     OH2      OT      -0.834000       15.9994           0
     23369 TIP3     2044     TIP3     H1       HT       0.417000       1.00800           0
     23370 TIP3     2044     TIP3     H2       HT       0.417000       1.00800           0
     23371 TIP3     2045     TIP3     OH2      OT      -0.834000       15.9994           0
     23372 TIP3     2045     TIP3     H1       HT       0.417000       1.00800           0
     23373 TIP3     2045     TIP3     H2       HT       0.417000       1.00800           0
     23374 TIP3     2046     TIP3     OH2      OT      -0.834000       15.9994           0
     23375 TIP3     2046     TIP3     H1       HT       0.417000       1.00800           0
     23376 TIP3     2046     TIP3     H2       HT       0.417000       1.00800           0
     23377 TIP3     2047     TIP3     OH2      OT      -0.834000       15.9994           0
     23378 TIP3     2047     TIP3     H1       HT       0.417000       1.00800           0
     23379 TIP3     2047     TIP3     H2       HT       0.417000       1.00800           0
     23380 TIP3     2048     TIP3     OH2      OT      -0.834000       15.9994           0
     23381 TIP3     2048     TIP3     H1       HT       0.417000       1.00800           0
     23382 TIP3     2048     TIP3     H2       HT       0.417000       1.00800           0
     23383 TIP3     2049     TIP3     OH2      OT      -0.834000       15.9994           0
     23384 TIP3     2049     TIP3     H1       HT       0.417000       1.00800           0
     23385 TIP3     2049     TIP3     H2       HT       0.417000       1.00800           0
     23386 TIP3     2050     TIP3     OH2      OT      -0.834000       15.9994           0
     23387 TIP3     2050     TIP3     H1       HT       0.417000       1.00800           0
     23388 TIP3     2050     TIP3     H2       HT       0.417000       1.00800           0
     23389 TIP3     2051     TIP3     OH2      OT      -0.834000       15.9994           0
     23390 TIP3     2051     TIP3     H1       HT       0.417000       1.00800           0
     23391 TIP3     2051     TIP3     H2       HT       0.417000       1.00800           0
     23392 TIP3     2052     TIP3     OH2      OT      -0.834000       15.9994           0
     23393 TIP3     2052     TIP3     H1       HT       0.417000       1.00800           0
     23394 TIP3     2052     TIP3     H2       HT       0.417000       1.00800           0
     23395 TIP3     2053     TIP3     OH2      OT      -0.834000       15.9994           0
     23396 TIP3     2053     TIP3     H1       HT       0.417000       1.00800           0
     23397 TIP3     2053     TIP3     H2       HT       0.417000       1.00800           0
     23398 TIP3     2054     TIP3     OH2      OT      -0.834000       15.9994           0
     23399 TIP3     2054     TIP3     H1       HT       0.417000       1.00800           0
     23400 TIP3     2054     TIP3     H2       HT       0.417000       1.00800           0
     23401 TIP3     2055     TIP3     OH2      OT      -0.834000       15.9994           0
     23402 TIP3     2055     TIP3     H1       HT       0.417000       1.00800           0
     23403 TIP3     2055     TIP3     H2       HT       0.417000       1.00800           0
     23404 TIP3     2056     TIP3     OH2      OT      -0.834000       15.9994           0
     23405 TIP3     2056     TIP3     H1       HT       0.417000       1.00800           0
     23406 TIP3     2056     TIP3     H2       HT       0.417000       1.00800           0
     23407 TIP3     2057     TIP3     OH2      OT      -0.834000       15.9994           0
     23408 TIP3     2057     TIP3     H1       HT       0.417000       1.00800           0
     23409 TIP3     2057     TIP3     H2       HT       0.417000       1.00800           0
     23410 TIP3     2058     TIP3     OH2      OT      -0.834000       15.9994           0
     23411 TIP3     2058     TIP3     H1       HT       0.417000       1.00800           0
     23412 TIP3     2058     TIP3     H2       HT       0.417000       1.00800           0
     23413 TIP3     2059     TIP3     OH2      OT      -0.834000       15.9994           0
     23414 TIP3     2059     TIP3     H1       HT       0.417000       1.00800           0
     23415 TIP3     2059     TIP3     H2       HT       0.417000       1.00800           0
     23416 TIP3     2060     TIP3     OH2      OT      -0.834000       15.9994           0
     23417 TIP3     2060     TIP3     H1       HT       0.417000       1.00800           0
     23418 TIP3     2060     TIP3     H2       HT       0.417000       1.00800           0
     23419 TIP3     2061     TIP3     OH2      OT      -0.834000       15.9994           0
     23420 TIP3     2061     TIP3     H1       HT       0.417000       1.00800           0
     23421 TIP3     2061     TIP3     H2       HT       0.417000       1.00800           0
     23422 TIP3     2062     TIP3     OH2      OT      -0.834000       15.9994           0
     23423 TIP3     2062     TIP3     H1       HT       0.417000       1.00800           0
     23424 TIP3     2062     TIP3     H2       HT       0.417000       1.00800           0
     23425 TIP3     2063     TIP3     OH2      OT      -0.834000       15.9994           0
     23426 TIP3     2063     TIP3     H1       HT       0.417000       1.00800           0
     23427 TIP3     2063     TIP3     H2       HT       0.417000       1.00800           0
     23428 TIP3     2064     TIP3     OH2      OT      -0.834000       15.9994           0
     23429 TIP3     2064     TIP3     H1       HT       0.417000       1.00800           0
     23430 TIP3     2064     TIP3     H2       HT       0.417000       1.00800           0
     23431 TIP3     2065     TIP3     OH2      OT      -0.834000       15.9994           0
     23432 TIP3     2065     TIP3     H1       HT       0.417000       1.00800           0
     23433 TIP3     2065     TIP3     H2       HT       0.417000       1.00800           0
     23434 TIP3     2066     TIP3     OH2      OT      -0.834000       15.9994           0
     23435 TIP3     2066     TIP3     H1       HT       0.417000       1.00800           0
     23436 TIP3     2066     TIP3     H2       HT       0.417000       1.00800           0
     23437 TIP3     2067     TIP3     OH2      OT      -0.834000       15.9994           0
     23438 TIP3     2067     TIP3     H1       HT       0.417000       1.00800           0
     23439 TIP3     2067     TIP3     H2       HT       0.417000       1.00800           0
     23440 TIP3     2068     TIP3     OH2      OT      -0.834000       15.9994           0
     23441 TIP3     2068     TIP3     H1       HT       0.417000       1.00800           0
     23442 TIP3     2068     TIP3     H2       HT       0.417000       1.00800           0
     23443 TIP3     2069     TIP3     OH2      OT      -0.834000       15.9994           0
     23444 TIP3     2069     TIP3     H1       HT       0.417000       1.00800           0
     23445 TIP3     2069     TIP3     H2       HT       0.417000       1.00800           0
     23446 TIP3     2070     TIP3     OH2      OT      -0.834000       15.9994           0
     23447 TIP3     2070     TIP3     H1       HT       0.417000       1.00800           0
     23448 TIP3     2070     TIP3     H2       HT       0.417000       1.00800           0
     23449 TIP3     2071     TIP3     OH2      OT      -0.834000       15.9994           0
     23450 TIP3     2071     TIP3     H1       HT       0.417000       1.00800           0
     23451 TIP3     2071     TIP3     H2       HT       0.417000       1.00800           0
     23452 TIP3     2072     TIP3     OH2      OT      -0.834000       15.9994           0
     23453 TIP3     2072     TIP3     H1       HT       0.417000       1.00800           0
     23454 TIP3     2072     TIP3     H2       HT       0.417000       1.00800           0
     23455 TIP3     2073     TIP3     OH2      OT      -0.834000       15.9994           0
     23456 TIP3     2073     TIP3     H1       HT       0.417000       1.00800           0
     23457 TIP3     2073     TIP3     H2       HT       0.417000       1.00800           0
     23458 TIP3     2074     TIP3     OH2      OT      -0.834000       15.9994           0
     23459 TIP3     2074     TIP3     H1       HT       0.417000       1.00800           0
     23460 TIP3     2074     TIP3     H2       HT       0.417000       1.00800           0
     23461 TIP3     2075     TIP3     OH2      OT      -0.834000       15.9994           0
     23462 TIP3     2075     TIP3     H1       HT       0.417000       1.00800           0
     23463 TIP3     2075     TIP3     H2       HT       0.417000       1.00800           0
     23464 TIP3     2076     TIP3     OH2      OT      -0.834000       15.9994           0
     23465 TIP3     2076     TIP3     H1       HT       0.417000       1.00800           0
     23466 TIP3     2076     TIP3     H2       HT       0.417000       1.00800           0
     23467 TIP3     2077     TIP3     OH2      OT      -0.834000       15.9994           0
     23468 TIP3     2077     TIP3     H1       HT       0.417000       1.00800           0
     23469 TIP3     2077     TIP3     H2       HT       0.417000       1.00800           0
     23470 TIP3     2078     TIP3     OH2      OT      -0.834000       15.9994           0
     23471 TIP3     2078     TIP3     H1       HT       0.417000       1.00800           0
     23472 TIP3     2078     TIP3     H2       HT       0.417000       1.00800           0
     23473 TIP3     2079     TIP3     OH2      OT      -0.834000       15.9994           0
     23474 TIP3     2079     TIP3     H1       HT       0.417000       1.00800           0
     23475 TIP3     2079     TIP3     H2       HT       0.417000       1.00800           0
     23476 TIP3     2080     TIP3     OH2      OT      -0.834000       15.9994           0
     23477 TIP3     2080     TIP3     H1       HT       0.417000       1.00800           0
     23478 TIP3     2080     TIP3     H2       HT       0.417000       1.00800           0
     23479 TIP3     2081     TIP3     OH2      OT      -0.834000       15.9994           0
     23480 TIP3     2081     TIP3     H1       HT       0.417000       1.00800           0
     23481 TIP3     2081     TIP3     H2       HT       0.417000       1.00800           0
     23482 TIP3     2082     TIP3     OH2      OT      -0.834000       15.9994           0
     23483 TIP3     2082     TIP3     H1       HT       0.417000       1.00800           0
     23484 TIP3     2082     TIP3     H2       HT       0.417000       1.00800           0
     23485 TIP3     2083     TIP3     OH2      OT      -0.834000       15.9994           0
     23486 TIP3     2083     TIP3     H1       HT       0.417000       1.00800           0
     23487 TIP3     2083     TIP3     H2       HT       0.417000       1.00800           0
     23488 TIP3     2084     TIP3     OH2      OT      -0.834000       15.9994           0
     23489 TIP3     2084     TIP3     H1       HT       0.417000       1.00800           0
     23490 TIP3     2084     TIP3     H2       HT       0.417000       1.00800           0
     23491 TIP3     2085     TIP3     OH2      OT      -0.834000       15.9994           0
     23492 TIP3     2085     TIP3     H1       HT       0.417000       1.00800           0
     23493 TIP3     2085     TIP3     H2       HT       0.417000       1.00800           0
     23494 TIP3     2086     TIP3     OH2      OT      -0.834000       15.9994           0
     23495 TIP3     2086     TIP3     H1       HT       0.417000       1.00800           0
     23496 TIP3     2086     TIP3     H2       HT       0.417000       1.00800           0
     23497 TIP3     2087     TIP3     OH2      OT      -0.834000       15.9994           0
     23498 TIP3     2087     TIP3     H1       HT       0.417000       1.00800           0
     23499 TIP3     2087     TIP3     H2       HT       0.417000       1.00800           0
     23500 TIP3     2088     TIP3     OH2      OT      -0.834000       15.9994           0
     23501 TIP3     2088     TIP3     H1       HT       0.417000       1.00800           0
     23502 TIP3     2088     TIP3     H2       HT       0.417000       1.00800           0
     23503 TIP3     2089     TIP3     OH2      OT      -0.834000       15.9994           0
     23504 TIP3     2089     TIP3     H1       HT       0.417000       1.00800           0
     23505 TIP3     2089     TIP3     H2       HT       0.417000       1.00800           0
     23506 TIP3     2090     TIP3     OH2      OT      -0.834000       15.9994           0
     23507 TIP3     2090     TIP3     H1       HT       0.417000       1.00800           0
     23508 TIP3     2090     TIP3     H2       HT       0.417000       1.00800           0
     23509 TIP3     2091     TIP3     OH2      OT      -0.834000       15.9994           0
     23510 TIP3     2091     TIP3     H1       HT       0.417000       1.00800           0
     23511 TIP3     2091     TIP3     H2       HT       0.417000       1.00800           0
     23512 TIP3     2092     TIP3     OH2      OT      -0.834000       15.9994           0
     23513 TIP3     2092     TIP3     H1       HT       0.417000       1.00800           0
     23514 TIP3     2092     TIP3     H2       HT       0.417000       1.00800           0
     23515 TIP3     2093     TIP3     OH2      OT      -0.834000       15.9994           0
     23516 TIP3     2093     TIP3     H1       HT       0.417000       1.00800           0
     23517 TIP3     2093     TIP3     H2       HT       0.417000       1.00800           0
     23518 TIP3     2094     TIP3     OH2      OT      -0.834000       15.9994           0
     23519 TIP3     2094     TIP3     H1       HT       0.417000       1.00800           0
     23520 TIP3     2094     TIP3     H2       HT       0.417000       1.00800           0
     23521 TIP3     2095     TIP3     OH2      OT      -0.834000       15.9994           0
     23522 TIP3     2095     TIP3     H1       HT       0.417000       1.00800           0
     23523 TIP3     2095     TIP3     H2       HT       0.417000       1.00800           0
     23524 TIP3     2096     TIP3     OH2      OT      -0.834000       15.9994           0
     23525 TIP3     2096     TIP3     H1       HT       0.417000       1.00800           0
     23526 TIP3     2096     TIP3     H2       HT       0.417000       1.00800           0
     23527 TIP3     2097     TIP3     OH2      OT      -0.834000       15.9994           0
     23528 TIP3     2097     TIP3     H1       HT       0.417000       1.00800           0
     23529 TIP3     2097     TIP3     H2       HT       0.417000       1.00800           0
     23530 TIP3     2098     TIP3     OH2      OT      -0.834000       15.9994           0
     23531 TIP3     2098     TIP3     H1       HT       0.417000       1.00800           0
     23532 TIP3     2098     TIP3     H2       HT       0.417000       1.00800           0
     23533 TIP3     2099     TIP3     OH2      OT      -0.834000       15.9994           0
     23534 TIP3     2099     TIP3     H1       HT       0.417000       1.00800           0
     23535 TIP3     2099     TIP3     H2       HT       0.417000       1.00800           0
     23536 TIP3     2100     TIP3     OH2      OT      -0.834000       15.9994           0
     23537 TIP3     2100     TIP3     H1       HT       0.417000       1.00800           0
     23538 TIP3     2100     TIP3     H2       HT       0.417000       1.00800           0
     23539 TIP3     2101     TIP3     OH2      OT      -0.834000       15.9994           0
     23540 TIP3     2101     TIP3     H1       HT       0.417000       1.00800           0
     23541 TIP3     2101     TIP3     H2       HT       0.417000       1.00800           0
     23542 TIP3     2102     TIP3     OH2      OT      -0.834000       15.9994           0
     23543 TIP3     2102     TIP3     H1       HT       0.417000       1.00800           0
     23544 TIP3     2102     TIP3     H2       HT       0.417000       1.00800           0
     23545 TIP3     2103     TIP3     OH2      OT      -0.834000       15.9994           0
     23546 TIP3     2103     TIP3     H1       HT       0.417000       1.00800           0
     23547 TIP3     2103     TIP3     H2       HT       0.417000       1.00800           0
     23548 TIP3     2104     TIP3     OH2      OT      -0.834000       15.9994           0
     23549 TIP3     2104     TIP3     H1       HT       0.417000       1.00800           0
     23550 TIP3     2104     TIP3     H2       HT       0.417000       1.00800           0
     23551 TIP3     2105     TIP3     OH2      OT      -0.834000       15.9994           0
     23552 TIP3     2105     TIP3     H1       HT       0.417000       1.00800           0
     23553 TIP3     2105     TIP3     H2       HT       0.417000       1.00800           0
     23554 TIP3     2106     TIP3     OH2      OT      -0.834000       15.9994           0
     23555 TIP3     2106     TIP3     H1       HT       0.417000       1.00800           0
     23556 TIP3     2106     TIP3     H2       HT       0.417000       1.00800           0
     23557 TIP3     2107     TIP3     OH2      OT      -0.834000       15.9994           0
     23558 TIP3     2107     TIP3     H1       HT       0.417000       1.00800           0
     23559 TIP3     2107     TIP3     H2       HT       0.417000       1.00800           0
     23560 TIP3     2108     TIP3     OH2      OT      -0.834000       15.9994           0
     23561 TIP3     2108     TIP3     H1       HT       0.417000       1.00800           0
     23562 TIP3     2108     TIP3     H2       HT       0.417000       1.00800           0
     23563 TIP3     2109     TIP3     OH2      OT      -0.834000       15.9994           0
     23564 TIP3     2109     TIP3     H1       HT       0.417000       1.00800           0
     23565 TIP3     2109     TIP3     H2       HT       0.417000       1.00800           0
     23566 TIP3     2110     TIP3     OH2      OT      -0.834000       15.9994           0
     23567 TIP3     2110     TIP3     H1       HT       0.417000       1.00800           0
     23568 TIP3     2110     TIP3     H2       HT       0.417000       1.00800           0
     23569 TIP3     2111     TIP3     OH2      OT      -0.834000       15.9994           0
     23570 TIP3     2111     TIP3     H1       HT       0.417000       1.00800           0
     23571 TIP3     2111     TIP3     H2       HT       0.417000       1.00800           0
     23572 TIP3     2112     TIP3     OH2      OT      -0.834000       15.9994           0
     23573 TIP3     2112     TIP3     H1       HT       0.417000       1.00800           0
     23574 TIP3     2112     TIP3     H2       HT       0.417000       1.00800           0
     23575 TIP3     2113     TIP3     OH2      OT      -0.834000       15.9994           0
     23576 TIP3     2113     TIP3     H1       HT       0.417000       1.00800           0
     23577 TIP3     2113     TIP3     H2       HT       0.417000       1.00800           0
     23578 TIP3     2114     TIP3     OH2      OT      -0.834000       15.9994           0
     23579 TIP3     2114     TIP3     H1       HT       0.417000       1.00800           0
     23580 TIP3     2114     TIP3     H2       HT       0.417000       1.00800           0
     23581 TIP3     2115     TIP3     OH2      OT      -0.834000       15.9994           0
     23582 TIP3     2115     TIP3     H1       HT       0.417000       1.00800           0
     23583 TIP3     2115     TIP3     H2       HT       0.417000       1.00800           0
     23584 TIP3     2116     TIP3     OH2      OT      -0.834000       15.9994           0
     23585 TIP3     2116     TIP3     H1       HT       0.417000       1.00800           0
     23586 TIP3     2116     TIP3     H2       HT       0.417000       1.00800           0
     23587 TIP3     2117     TIP3     OH2      OT      -0.834000       15.9994           0
     23588 TIP3     2117     TIP3     H1       HT       0.417000       1.00800           0
     23589 TIP3     2117     TIP3     H2       HT       0.417000       1.00800           0
     23590 TIP3     2118     TIP3     OH2      OT      -0.834000       15.9994           0
     23591 TIP3     2118     TIP3     H1       HT       0.417000       1.00800           0
     23592 TIP3     2118     TIP3     H2       HT       0.417000       1.00800           0
     23593 TIP3     2119     TIP3     OH2      OT      -0.834000       15.9994           0
     23594 TIP3     2119     TIP3     H1       HT       0.417000       1.00800           0
     23595 TIP3     2119     TIP3     H2       HT       0.417000       1.00800           0
     23596 TIP3     2120     TIP3     OH2      OT      -0.834000       15.9994           0
     23597 TIP3     2120     TIP3     H1       HT       0.417000       1.00800           0
     23598 TIP3     2120     TIP3     H2       HT       0.417000       1.00800           0
     23599 TIP3     2121     TIP3     OH2      OT      -0.834000       15.9994           0
     23600 TIP3     2121     TIP3     H1       HT       0.417000       1.00800           0
     23601 TIP3     2121     TIP3     H2       HT       0.417000       1.00800           0
     23602 TIP3     2122     TIP3     OH2      OT      -0.834000       15.9994           0
     23603 TIP3     2122     TIP3     H1       HT       0.417000       1.00800           0
     23604 TIP3     2122     TIP3     H2       HT       0.417000       1.00800           0
     23605 TIP3     2123     TIP3     OH2      OT      -0.834000       15.9994           0
     23606 TIP3     2123     TIP3     H1       HT       0.417000       1.00800           0
     23607 TIP3     2123     TIP3     H2       HT       0.417000       1.00800           0
     23608 TIP3     2124     TIP3     OH2      OT      -0.834000       15.9994           0
     23609 TIP3     2124     TIP3     H1       HT       0.417000       1.00800           0
     23610 TIP3     2124     TIP3     H2       HT       0.417000       1.00800           0
     23611 TIP3     2125     TIP3     OH2      OT      -0.834000       15.9994           0
     23612 TIP3     2125     TIP3     H1       HT       0.417000       1.00800           0
     23613 TIP3     2125     TIP3     H2       HT       0.417000       1.00800           0
     23614 TIP3     2126     TIP3     OH2      OT      -0.834000       15.9994           0
     23615 TIP3     2126     TIP3     H1       HT       0.417000       1.00800           0
     23616 TIP3     2126     TIP3     H2       HT       0.417000       1.00800           0
     23617 TIP3     2127     TIP3     OH2      OT      -0.834000       15.9994           0
     23618 TIP3     2127     TIP3     H1       HT       0.417000       1.00800           0
     23619 TIP3     2127     TIP3     H2       HT       0.417000       1.00800           0
     23620 TIP3     2128     TIP3     OH2      OT      -0.834000       15.9994           0
     23621 TIP3     2128     TIP3     H1       HT       0.417000       1.00800           0
     23622 TIP3     2128     TIP3     H2       HT       0.417000       1.00800           0
     23623 TIP3     2129     TIP3     OH2      OT      -0.834000       15.9994           0
     23624 TIP3     2129     TIP3     H1       HT       0.417000       1.00800           0
     23625 TIP3     2129     TIP3     H2       HT       0.417000       1.00800           0
     23626 TIP3     2130     TIP3     OH2      OT      -0.834000       15.9994           0
     23627 TIP3     2130     TIP3     H1       HT       0.417000       1.00800           0
     23628 TIP3     2130     TIP3     H2       HT       0.417000       1.00800           0
     23629 TIP3     2131     TIP3     OH2      OT      -0.834000       15.9994           0
     23630 TIP3     2131     TIP3     H1       HT       0.417000       1.00800           0
     23631 TIP3     2131     TIP3     H2       HT       0.417000       1.00800           0
     23632 TIP3     2132     TIP3     OH2      OT      -0.834000       15.9994           0
     23633 TIP3     2132     TIP3     H1       HT       0.417000       1.00800           0
     23634 TIP3     2132     TIP3     H2       HT       0.417000       1.00800           0
     23635 TIP3     2133     TIP3     OH2      OT      -0.834000       15.9994           0
     23636 TIP3     2133     TIP3     H1       HT       0.417000       1.00800           0
     23637 TIP3     2133     TIP3     H2       HT       0.417000       1.00800           0
     23638 TIP3     2134     TIP3     OH2      OT      -0.834000       15.9994           0
     23639 TIP3     2134     TIP3     H1       HT       0.417000       1.00800           0
     23640 TIP3     2134     TIP3     H2       HT       0.417000       1.00800           0
     23641 TIP3     2135     TIP3     OH2      OT      -0.834000       15.9994           0
     23642 TIP3     2135     TIP3     H1       HT       0.417000       1.00800           0
     23643 TIP3     2135     TIP3     H2       HT       0.417000       1.00800           0
     23644 TIP3     2136     TIP3     OH2      OT      -0.834000       15.9994           0
     23645 TIP3     2136     TIP3     H1       HT       0.417000       1.00800           0
     23646 TIP3     2136     TIP3     H2       HT       0.417000       1.00800           0
     23647 TIP3     2137     TIP3     OH2      OT      -0.834000       15.9994           0
     23648 TIP3     2137     TIP3     H1       HT       0.417000       1.00800           0
     23649 TIP3     2137     TIP3     H2       HT       0.417000       1.00800           0
     23650 TIP3     2138     TIP3     OH2      OT      -0.834000       15.9994           0
     23651 TIP3     2138     TIP3     H1       HT       0.417000       1.00800           0
     23652 TIP3     2138     TIP3     H2       HT       0.417000       1.00800           0
     23653 TIP3     2139     TIP3     OH2      OT      -0.834000       15.9994           0
     23654 TIP3     2139     TIP3     H1       HT       0.417000       1.00800           0
     23655 TIP3     2139     TIP3     H2       HT       0.417000       1.00800           0
     23656 TIP3     2140     TIP3     OH2      OT      -0.834000       15.9994           0
     23657 TIP3     2140     TIP3     H1       HT       0.417000       1.00800           0
     23658 TIP3     2140     TIP3     H2       HT       0.417000       1.00800           0
     23659 TIP3     2141     TIP3     OH2      OT      -0.834000       15.9994           0
     23660 TIP3     2141     TIP3     H1       HT       0.417000       1.00800           0
     23661 TIP3     2141     TIP3     H2       HT       0.417000       1.00800           0
     23662 TIP3     2142     TIP3     OH2      OT      -0.834000       15.9994           0
     23663 TIP3     2142     TIP3     H1       HT       0.417000       1.00800           0
     23664 TIP3     2142     TIP3     H2       HT       0.417000       1.00800           0
     23665 TIP3     2143     TIP3     OH2      OT      -0.834000       15.9994           0
     23666 TIP3     2143     TIP3     H1       HT       0.417000       1.00800           0
     23667 TIP3     2143     TIP3     H2       HT       0.417000       1.00800           0
     23668 TIP3     2144     TIP3     OH2      OT      -0.834000       15.9994           0
     23669 TIP3     2144     TIP3     H1       HT       0.417000       1.00800           0
     23670 TIP3     2144     TIP3     H2       HT       0.417000       1.00800           0
     23671 TIP3     2145     TIP3     OH2      OT      -0.834000       15.9994           0
     23672 TIP3     2145     TIP3     H1       HT       0.417000       1.00800           0
     23673 TIP3     2145     TIP3     H2       HT       0.417000       1.00800           0
     23674 TIP3     2146     TIP3     OH2      OT      -0.834000       15.9994           0
     23675 TIP3     2146     TIP3     H1       HT       0.417000       1.00800           0
     23676 TIP3     2146     TIP3     H2       HT       0.417000       1.00800           0
     23677 TIP3     2147     TIP3     OH2      OT      -0.834000       15.9994           0
     23678 TIP3     2147     TIP3     H1       HT       0.417000       1.00800           0
     23679 TIP3     2147     TIP3     H2       HT       0.417000       1.00800           0
     23680 TIP3     2148     TIP3     OH2      OT      -0.834000       15.9994           0
     23681 TIP3     2148     TIP3     H1       HT       0.417000       1.00800           0
     23682 TIP3     2148     TIP3     H2       HT       0.417000       1.00800           0
     23683 TIP3     2149     TIP3     OH2      OT      -0.834000       15.9994           0
     23684 TIP3     2149     TIP3     H1       HT       0.417000       1.00800           0
     23685 TIP3     2149     TIP3     H2       HT       0.417000       1.00800           0
     23686 TIP3     2150     TIP3     OH2      OT      -0.834000       15.9994           0
     23687 TIP3     2150     TIP3     H1       HT       0.417000       1.00800           0
     23688 TIP3     2150     TIP3     H2       HT       0.417000       1.00800           0
     23689 TIP3     2151     TIP3     OH2      OT      -0.834000       15.9994           0
     23690 TIP3     2151     TIP3     H1       HT       0.417000       1.00800           0
     23691 TIP3     2151     TIP3     H2       HT       0.417000       1.00800           0
     23692 TIP3     2152     TIP3     OH2      OT      -0.834000       15.9994           0
     23693 TIP3     2152     TIP3     H1       HT       0.417000       1.00800           0
     23694 TIP3     2152     TIP3     H2       HT       0.417000       1.00800           0
     23695 TIP3     2153     TIP3     OH2      OT      -0.834000       15.9994           0
     23696 TIP3     2153     TIP3     H1       HT       0.417000       1.00800           0
     23697 TIP3     2153     TIP3     H2       HT       0.417000       1.00800           0
     23698 TIP3     2154     TIP3     OH2      OT      -0.834000       15.9994           0
     23699 TIP3     2154     TIP3     H1       HT       0.417000       1.00800           0
     23700 TIP3     2154     TIP3     H2       HT       0.417000       1.00800           0
     23701 TIP3     2155     TIP3     OH2      OT      -0.834000       15.9994           0
     23702 TIP3     2155     TIP3     H1       HT       0.417000       1.00800           0
     23703 TIP3     2155     TIP3     H2       HT       0.417000       1.00800           0
     23704 TIP3     2156     TIP3     OH2      OT      -0.834000       15.9994           0
     23705 TIP3     2156     TIP3     H1       HT       0.417000       1.00800           0
     23706 TIP3     2156     TIP3     H2       HT       0.417000       1.00800           0
     23707 TIP3     2157     TIP3     OH2      OT      -0.834000       15.9994           0
     23708 TIP3     2157     TIP3     H1       HT       0.417000       1.00800           0
     23709 TIP3     2157     TIP3     H2       HT       0.417000       1.00800           0
     23710 TIP3     2158     TIP3     OH2      OT      -0.834000       15.9994           0
     23711 TIP3     2158     TIP3     H1       HT       0.417000       1.00800           0
     23712 TIP3     2158     TIP3     H2       HT       0.417000       1.00800           0
     23713 TIP3     2159     TIP3     OH2      OT      -0.834000       15.9994           0
     23714 TIP3     2159     TIP3     H1       HT       0.417000       1.00800           0
     23715 TIP3     2159     TIP3     H2       HT       0.417000       1.00800           0
     23716 TIP3     2160     TIP3     OH2      OT      -0.834000       15.9994           0
     23717 TIP3     2160     TIP3     H1       HT       0.417000       1.00800           0
     23718 TIP3     2160     TIP3     H2       HT       0.417000       1.00800           0
     23719 TIP3     2161     TIP3     OH2      OT      -0.834000       15.9994           0
     23720 TIP3     2161     TIP3     H1       HT       0.417000       1.00800           0
     23721 TIP3     2161     TIP3     H2       HT       0.417000       1.00800           0
     23722 TIP3     2162     TIP3     OH2      OT      -0.834000       15.9994           0
     23723 TIP3     2162     TIP3     H1       HT       0.417000       1.00800           0
     23724 TIP3     2162     TIP3     H2       HT       0.417000       1.00800           0
     23725 TIP3     2163     TIP3     OH2      OT      -0.834000       15.9994           0
     23726 TIP3     2163     TIP3     H1       HT       0.417000       1.00800           0
     23727 TIP3     2163     TIP3     H2       HT       0.417000       1.00800           0
     23728 TIP3     2164     TIP3     OH2      OT      -0.834000       15.9994           0
     23729 TIP3     2164     TIP3     H1       HT       0.417000       1.00800           0
     23730 TIP3     2164     TIP3     H2       HT       0.417000       1.00800           0
     23731 TIP3     2165     TIP3     OH2      OT      -0.834000       15.9994           0
     23732 TIP3     2165     TIP3     H1       HT       0.417000       1.00800           0
     23733 TIP3     2165     TIP3     H2       HT       0.417000       1.00800           0
     23734 TIP3     2166     TIP3     OH2      OT      -0.834000       15.9994           0
     23735 TIP3     2166     TIP3     H1       HT       0.417000       1.00800           0
     23736 TIP3     2166     TIP3     H2       HT       0.417000       1.00800           0
     23737 TIP3     2167     TIP3     OH2      OT      -0.834000       15.9994           0
     23738 TIP3     2167     TIP3     H1       HT       0.417000       1.00800           0
     23739 TIP3     2167     TIP3     H2       HT       0.417000       1.00800           0
     23740 TIP3     2168     TIP3     OH2      OT      -0.834000       15.9994           0
     23741 TIP3     2168     TIP3     H1       HT       0.417000       1.00800           0
     23742 TIP3     2168     TIP3     H2       HT       0.417000       1.00800           0
     23743 TIP3     2169     TIP3     OH2      OT      -0.834000       15.9994           0
     23744 TIP3     2169     TIP3     H1       HT       0.417000       1.00800           0
     23745 TIP3     2169     TIP3     H2       HT       0.417000       1.00800           0
     23746 TIP3     2170     TIP3     OH2      OT      -0.834000       15.9994           0
     23747 TIP3     2170     TIP3     H1       HT       0.417000       1.00800           0
     23748 TIP3     2170     TIP3     H2       HT       0.417000       1.00800           0
     23749 TIP3     2171     TIP3     OH2      OT      -0.834000       15.9994           0
     23750 TIP3     2171     TIP3     H1       HT       0.417000       1.00800           0
     23751 TIP3     2171     TIP3     H2       HT       0.417000       1.00800           0
     23752 TIP3     2172     TIP3     OH2      OT      -0.834000       15.9994           0
     23753 TIP3     2172     TIP3     H1       HT       0.417000       1.00800           0
     23754 TIP3     2172     TIP3     H2       HT       0.417000       1.00800           0
     23755 TIP3     2173     TIP3     OH2      OT      -0.834000       15.9994           0
     23756 TIP3     2173     TIP3     H1       HT       0.417000       1.00800           0
     23757 TIP3     2173     TIP3     H2       HT       0.417000       1.00800           0
     23758 TIP3     2174     TIP3     OH2      OT      -0.834000       15.9994           0
     23759 TIP3     2174     TIP3     H1       HT       0.417000       1.00800           0
     23760 TIP3     2174     TIP3     H2       HT       0.417000       1.00800           0
     23761 TIP3     2175     TIP3     OH2      OT      -0.834000       15.9994           0
     23762 TIP3     2175     TIP3     H1       HT       0.417000       1.00800           0
     23763 TIP3     2175     TIP3     H2       HT       0.417000       1.00800           0
     23764 TIP3     2176     TIP3     OH2      OT      -0.834000       15.9994           0
     23765 TIP3     2176     TIP3     H1       HT       0.417000       1.00800           0
     23766 TIP3     2176     TIP3     H2       HT       0.417000       1.00800           0
     23767 TIP3     2177     TIP3     OH2      OT      -0.834000       15.9994           0
     23768 TIP3     2177     TIP3     H1       HT       0.417000       1.00800           0
     23769 TIP3     2177     TIP3     H2       HT       0.417000       1.00800           0
     23770 TIP3     2178     TIP3     OH2      OT      -0.834000       15.9994           0
     23771 TIP3     2178     TIP3     H1       HT       0.417000       1.00800           0
     23772 TIP3     2178     TIP3     H2       HT       0.417000       1.00800           0
     23773 TIP3     2179     TIP3     OH2      OT      -0.834000       15.9994           0
     23774 TIP3     2179     TIP3     H1       HT       0.417000       1.00800           0
     23775 TIP3     2179     TIP3     H2       HT       0.417000       1.00800           0
     23776 TIP3     2180     TIP3     OH2      OT      -0.834000       15.9994           0
     23777 TIP3     2180     TIP3     H1       HT       0.417000       1.00800           0
     23778 TIP3     2180     TIP3     H2       HT       0.417000       1.00800           0
     23779 TIP3     2181     TIP3     OH2      OT      -0.834000       15.9994           0
     23780 TIP3     2181     TIP3     H1       HT       0.417000       1.00800           0
     23781 TIP3     2181     TIP3     H2       HT       0.417000       1.00800           0
     23782 TIP3     2182     TIP3     OH2      OT      -0.834000       15.9994           0
     23783 TIP3     2182     TIP3     H1       HT       0.417000       1.00800           0
     23784 TIP3     2182     TIP3     H2       HT       0.417000       1.00800           0
     23785 TIP3     2183     TIP3     OH2      OT      -0.834000       15.9994           0
     23786 TIP3     2183     TIP3     H1       HT       0.417000       1.00800           0
     23787 TIP3     2183     TIP3     H2       HT       0.417000       1.00800           0
     23788 TIP3     2184     TIP3     OH2      OT      -0.834000       15.9994           0
     23789 TIP3     2184     TIP3     H1       HT       0.417000       1.00800           0
     23790 TIP3     2184     TIP3     H2       HT       0.417000       1.00800           0
     23791 TIP3     2185     TIP3     OH2      OT      -0.834000       15.9994           0
     23792 TIP3     2185     TIP3     H1       HT       0.417000       1.00800           0
     23793 TIP3     2185     TIP3     H2       HT       0.417000       1.00800           0
     23794 TIP3     2186     TIP3     OH2      OT      -0.834000       15.9994           0
     23795 TIP3     2186     TIP3     H1       HT       0.417000       1.00800           0
     23796 TIP3     2186     TIP3     H2       HT       0.417000       1.00800           0
     23797 TIP3     2187     TIP3     OH2      OT      -0.834000       15.9994           0
     23798 TIP3     2187     TIP3     H1       HT       0.417000       1.00800           0
     23799 TIP3     2187     TIP3     H2       HT       0.417000       1.00800           0
     23800 TIP3     2188     TIP3     OH2      OT      -0.834000       15.9994           0
     23801 TIP3     2188     TIP3     H1       HT       0.417000       1.00800           0
     23802 TIP3     2188     TIP3     H2       HT       0.417000       1.00800           0
     23803 TIP3     2189     TIP3     OH2      OT      -0.834000       15.9994           0
     23804 TIP3     2189     TIP3     H1       HT       0.417000       1.00800           0
     23805 TIP3     2189     TIP3     H2       HT       0.417000       1.00800           0
     23806 TIP3     2190     TIP3     OH2      OT      -0.834000       15.9994           0
     23807 TIP3     2190     TIP3     H1       HT       0.417000       1.00800           0
     23808 TIP3     2190     TIP3     H2       HT       0.417000       1.00800           0
     23809 TIP3     2191     TIP3     OH2      OT      -0.834000       15.9994           0
     23810 TIP3     2191     TIP3     H1       HT       0.417000       1.00800           0
     23811 TIP3     2191     TIP3     H2       HT       0.417000       1.00800           0
     23812 TIP3     2192     TIP3     OH2      OT      -0.834000       15.9994           0
     23813 TIP3     2192     TIP3     H1       HT       0.417000       1.00800           0
     23814 TIP3     2192     TIP3     H2       HT       0.417000       1.00800           0
     23815 TIP3     2193     TIP3     OH2      OT      -0.834000       15.9994           0
     23816 TIP3     2193     TIP3     H1       HT       0.417000       1.00800           0
     23817 TIP3     2193     TIP3     H2       HT       0.417000       1.00800           0
     23818 TIP3     2194     TIP3     OH2      OT      -0.834000       15.9994           0
     23819 TIP3     2194     TIP3     H1       HT       0.417000       1.00800           0
     23820 TIP3     2194     TIP3     H2       HT       0.417000       1.00800           0
     23821 TIP3     2195     TIP3     OH2      OT      -0.834000       15.9994           0
     23822 TIP3     2195     TIP3     H1       HT       0.417000       1.00800           0
     23823 TIP3     2195     TIP3     H2       HT       0.417000       1.00800           0
     23824 TIP3     2196     TIP3     OH2      OT      -0.834000       15.9994           0
     23825 TIP3     2196     TIP3     H1       HT       0.417000       1.00800           0
     23826 TIP3     2196     TIP3     H2       HT       0.417000       1.00800           0
     23827 TIP3     2197     TIP3     OH2      OT      -0.834000       15.9994           0
     23828 TIP3     2197     TIP3     H1       HT       0.417000       1.00800           0
     23829 TIP3     2197     TIP3     H2       HT       0.417000       1.00800           0
     23830 TIP3     2198     TIP3     OH2      OT      -0.834000       15.9994           0
     23831 TIP3     2198     TIP3     H1       HT       0.417000       1.00800           0
     23832 TIP3     2198     TIP3     H2       HT       0.417000       1.00800           0
     23833 TIP3     2199     TIP3     OH2      OT      -0.834000       15.9994           0
     23834 TIP3     2199     TIP3     H1       HT       0.417000       1.00800           0
     23835 TIP3     2199     TIP3     H2       HT       0.417000       1.00800           0
     23836 TIP3     2200     TIP3     OH2      OT      -0.834000       15.9994           0
     23837 TIP3     2200     TIP3     H1       HT       0.417000       1.00800           0
     23838 TIP3     2200     TIP3     H2       HT       0.417000       1.00800           0
     23839 TIP3     2201     TIP3     OH2      OT      -0.834000       15.9994           0
     23840 TIP3     2201     TIP3     H1       HT       0.417000       1.00800           0
     23841 TIP3     2201     TIP3     H2       HT       0.417000       1.00800           0
     23842 TIP3     2202     TIP3     OH2      OT      -0.834000       15.9994           0
     23843 TIP3     2202     TIP3     H1       HT       0.417000       1.00800           0
     23844 TIP3     2202     TIP3     H2       HT       0.417000       1.00800           0
     23845 TIP3     2203     TIP3     OH2      OT      -0.834000       15.9994           0
     23846 TIP3     2203     TIP3     H1       HT       0.417000       1.00800           0
     23847 TIP3     2203     TIP3     H2       HT       0.417000       1.00800           0
     23848 TIP3     2204     TIP3     OH2      OT      -0.834000       15.9994           0
     23849 TIP3     2204     TIP3     H1       HT       0.417000       1.00800           0
     23850 TIP3     2204     TIP3     H2       HT       0.417000       1.00800           0
     23851 TIP3     2205     TIP3     OH2      OT      -0.834000       15.9994           0
     23852 TIP3     2205     TIP3     H1       HT       0.417000       1.00800           0
     23853 TIP3     2205     TIP3     H2       HT       0.417000       1.00800           0
     23854 TIP3     2206     TIP3     OH2      OT      -0.834000       15.9994           0
     23855 TIP3     2206     TIP3     H1       HT       0.417000       1.00800           0
     23856 TIP3     2206     TIP3     H2       HT       0.417000       1.00800           0
     23857 TIP3     2207     TIP3     OH2      OT      -0.834000       15.9994           0
     23858 TIP3     2207     TIP3     H1       HT       0.417000       1.00800           0
     23859 TIP3     2207     TIP3     H2       HT       0.417000       1.00800           0
     23860 TIP3     2208     TIP3     OH2      OT      -0.834000       15.9994           0
     23861 TIP3     2208     TIP3     H1       HT       0.417000       1.00800           0
     23862 TIP3     2208     TIP3     H2       HT       0.417000       1.00800           0
     23863 TIP3     2209     TIP3     OH2      OT      -0.834000       15.9994           0
     23864 TIP3     2209     TIP3     H1       HT       0.417000       1.00800           0
     23865 TIP3     2209     TIP3     H2       HT       0.417000       1.00800           0
     23866 TIP3     2210     TIP3     OH2      OT      -0.834000       15.9994           0
     23867 TIP3     2210     TIP3     H1       HT       0.417000       1.00800           0
     23868 TIP3     2210     TIP3     H2       HT       0.417000       1.00800           0
     23869 TIP3     2211     TIP3     OH2      OT      -0.834000       15.9994           0
     23870 TIP3     2211     TIP3     H1       HT       0.417000       1.00800           0
     23871 TIP3     2211     TIP3     H2       HT       0.417000       1.00800           0
     23872 TIP3     2212     TIP3     OH2      OT      -0.834000       15.9994           0
     23873 TIP3     2212     TIP3     H1       HT       0.417000       1.00800           0
     23874 TIP3     2212     TIP3     H2       HT       0.417000       1.00800           0
     23875 TIP3     2213     TIP3     OH2      OT      -0.834000       15.9994           0
     23876 TIP3     2213     TIP3     H1       HT       0.417000       1.00800           0
     23877 TIP3     2213     TIP3     H2       HT       0.417000       1.00800           0
     23878 TIP3     2214     TIP3     OH2      OT      -0.834000       15.9994           0
     23879 TIP3     2214     TIP3     H1       HT       0.417000       1.00800           0
     23880 TIP3     2214     TIP3     H2       HT       0.417000       1.00800           0
     23881 TIP3     2215     TIP3     OH2      OT      -0.834000       15.9994           0
     23882 TIP3     2215     TIP3     H1       HT       0.417000       1.00800           0
     23883 TIP3     2215     TIP3     H2       HT       0.417000       1.00800           0
     23884 TIP3     2216     TIP3     OH2      OT      -0.834000       15.9994           0
     23885 TIP3     2216     TIP3     H1       HT       0.417000       1.00800           0
     23886 TIP3     2216     TIP3     H2       HT       0.417000       1.00800           0
     23887 TIP3     2217     TIP3     OH2      OT      -0.834000       15.9994           0
     23888 TIP3     2217     TIP3     H1       HT       0.417000       1.00800           0
     23889 TIP3     2217     TIP3     H2       HT       0.417000       1.00800           0
     23890 TIP3     2218     TIP3     OH2      OT      -0.834000       15.9994           0
     23891 TIP3     2218     TIP3     H1       HT       0.417000       1.00800           0
     23892 TIP3     2218     TIP3     H2       HT       0.417000       1.00800           0
     23893 TIP3     2219     TIP3     OH2      OT      -0.834000       15.9994           0
     23894 TIP3     2219     TIP3     H1       HT       0.417000       1.00800           0
     23895 TIP3     2219     TIP3     H2       HT       0.417000       1.00800           0
     23896 TIP3     2220     TIP3     OH2      OT      -0.834000       15.9994           0
     23897 TIP3     2220     TIP3     H1       HT       0.417000       1.00800           0
     23898 TIP3     2220     TIP3     H2       HT       0.417000       1.00800           0
     23899 TIP3     2221     TIP3     OH2      OT      -0.834000       15.9994           0
     23900 TIP3     2221     TIP3     H1       HT       0.417000       1.00800           0
     23901 TIP3     2221     TIP3     H2       HT       0.417000       1.00800           0
     23902 TIP3     2222     TIP3     OH2      OT      -0.834000       15.9994           0
     23903 TIP3     2222     TIP3     H1       HT       0.417000       1.00800           0
     23904 TIP3     2222     TIP3     H2       HT       0.417000       1.00800           0
     23905 TIP3     2223     TIP3     OH2      OT      -0.834000       15.9994           0
     23906 TIP3     2223     TIP3     H1       HT       0.417000       1.00800           0
     23907 TIP3     2223     TIP3     H2       HT       0.417000       1.00800           0
     23908 TIP3     2224     TIP3     OH2      OT      -0.834000       15.9994           0
     23909 TIP3     2224     TIP3     H1       HT       0.417000       1.00800           0
     23910 TIP3     2224     TIP3     H2       HT       0.417000       1.00800           0
     23911 TIP3     2225     TIP3     OH2      OT      -0.834000       15.9994           0
     23912 TIP3     2225     TIP3     H1       HT       0.417000       1.00800           0
     23913 TIP3     2225     TIP3     H2       HT       0.417000       1.00800           0
     23914 TIP3     2226     TIP3     OH2      OT      -0.834000       15.9994           0
     23915 TIP3     2226     TIP3     H1       HT       0.417000       1.00800           0
     23916 TIP3     2226     TIP3     H2       HT       0.417000       1.00800           0
     23917 TIP3     2227     TIP3     OH2      OT      -0.834000       15.9994           0
     23918 TIP3     2227     TIP3     H1       HT       0.417000       1.00800           0
     23919 TIP3     2227     TIP3     H2       HT       0.417000       1.00800           0
     23920 TIP3     2228     TIP3     OH2      OT      -0.834000       15.9994           0
     23921 TIP3     2228     TIP3     H1       HT       0.417000       1.00800           0
     23922 TIP3     2228     TIP3     H2       HT       0.417000       1.00800           0
     23923 TIP3     2229     TIP3     OH2      OT      -0.834000       15.9994           0
     23924 TIP3     2229     TIP3     H1       HT       0.417000       1.00800           0
     23925 TIP3     2229     TIP3     H2       HT       0.417000       1.00800           0
     23926 TIP3     2230     TIP3     OH2      OT      -0.834000       15.9994           0
     23927 TIP3     2230     TIP3     H1       HT       0.417000       1.00800           0
     23928 TIP3     2230     TIP3     H2       HT       0.417000       1.00800           0
     23929 TIP3     2231     TIP3     OH2      OT      -0.834000       15.9994           0
     23930 TIP3     2231     TIP3     H1       HT       0.417000       1.00800           0
     23931 TIP3     2231     TIP3     H2       HT       0.417000       1.00800           0
     23932 TIP3     2232     TIP3     OH2      OT      -0.834000       15.9994           0
     23933 TIP3     2232     TIP3     H1       HT       0.417000       1.00800           0
     23934 TIP3     2232     TIP3     H2       HT       0.417000       1.00800           0
     23935 TIP3     2233     TIP3     OH2      OT      -0.834000       15.9994           0
     23936 TIP3     2233     TIP3     H1       HT       0.417000       1.00800           0
     23937 TIP3     2233     TIP3     H2       HT       0.417000       1.00800           0
     23938 TIP3     2234     TIP3     OH2      OT      -0.834000       15.9994           0
     23939 TIP3     2234     TIP3     H1       HT       0.417000       1.00800           0
     23940 TIP3     2234     TIP3     H2       HT       0.417000       1.00800           0
     23941 TIP3     2235     TIP3     OH2      OT      -0.834000       15.9994           0
     23942 TIP3     2235     TIP3     H1       HT       0.417000       1.00800           0
     23943 TIP3     2235     TIP3     H2       HT       0.417000       1.00800           0
     23944 TIP3     2236     TIP3     OH2      OT      -0.834000       15.9994           0
     23945 TIP3     2236     TIP3     H1       HT       0.417000       1.00800           0
     23946 TIP3     2236     TIP3     H2       HT       0.417000       1.00800           0
     23947 TIP3     2237     TIP3     OH2      OT      -0.834000       15.9994           0
     23948 TIP3     2237     TIP3     H1       HT       0.417000       1.00800           0
     23949 TIP3     2237     TIP3     H2       HT       0.417000       1.00800           0
     23950 TIP3     2238     TIP3     OH2      OT      -0.834000       15.9994           0
     23951 TIP3     2238     TIP3     H1       HT       0.417000       1.00800           0
     23952 TIP3     2238     TIP3     H2       HT       0.417000       1.00800           0
     23953 TIP3     2239     TIP3     OH2      OT      -0.834000       15.9994           0
     23954 TIP3     2239     TIP3     H1       HT       0.417000       1.00800           0
     23955 TIP3     2239     TIP3     H2       HT       0.417000       1.00800           0
     23956 TIP3     2240     TIP3     OH2      OT      -0.834000       15.9994           0
     23957 TIP3     2240     TIP3     H1       HT       0.417000       1.00800           0
     23958 TIP3     2240     TIP3     H2       HT       0.417000       1.00800           0
     23959 TIP3     2241     TIP3     OH2      OT      -0.834000       15.9994           0
     23960 TIP3     2241     TIP3     H1       HT       0.417000       1.00800           0
     23961 TIP3     2241     TIP3     H2       HT       0.417000       1.00800           0
     23962 TIP3     2242     TIP3     OH2      OT      -0.834000       15.9994           0
     23963 TIP3     2242     TIP3     H1       HT       0.417000       1.00800           0
     23964 TIP3     2242     TIP3     H2       HT       0.417000       1.00800           0
     23965 TIP3     2243     TIP3     OH2      OT      -0.834000       15.9994           0
     23966 TIP3     2243     TIP3     H1       HT       0.417000       1.00800           0
     23967 TIP3     2243     TIP3     H2       HT       0.417000       1.00800           0
     23968 TIP3     2244     TIP3     OH2      OT      -0.834000       15.9994           0
     23969 TIP3     2244     TIP3     H1       HT       0.417000       1.00800           0
     23970 TIP3     2244     TIP3     H2       HT       0.417000       1.00800           0
     23971 TIP3     2245     TIP3     OH2      OT      -0.834000       15.9994           0
     23972 TIP3     2245     TIP3     H1       HT       0.417000       1.00800           0
     23973 TIP3     2245     TIP3     H2       HT       0.417000       1.00800           0
     23974 TIP3     2246     TIP3     OH2      OT      -0.834000       15.9994           0
     23975 TIP3     2246     TIP3     H1       HT       0.417000       1.00800           0
     23976 TIP3     2246     TIP3     H2       HT       0.417000       1.00800           0
     23977 TIP3     2247     TIP3     OH2      OT      -0.834000       15.9994           0
     23978 TIP3     2247     TIP3     H1       HT       0.417000       1.00800           0
     23979 TIP3     2247     TIP3     H2       HT       0.417000       1.00800           0
     23980 TIP3     2248     TIP3     OH2      OT      -0.834000       15.9994           0
     23981 TIP3     2248     TIP3     H1       HT       0.417000       1.00800           0
     23982 TIP3     2248     TIP3     H2       HT       0.417000       1.00800           0
     23983 TIP3     2249     TIP3     OH2      OT      -0.834000       15.9994           0
     23984 TIP3     2249     TIP3     H1       HT       0.417000       1.00800           0
     23985 TIP3     2249     TIP3     H2       HT       0.417000       1.00800           0
     23986 TIP3     2250     TIP3     OH2      OT      -0.834000       15.9994           0
     23987 TIP3     2250     TIP3     H1       HT       0.417000       1.00800           0
     23988 TIP3     2250     TIP3     H2       HT       0.417000       1.00800           0
     23989 TIP3     2251     TIP3     OH2      OT      -0.834000       15.9994           0
     23990 TIP3     2251     TIP3     H1       HT       0.417000       1.00800           0
     23991 TIP3     2251     TIP3     H2       HT       0.417000       1.00800           0
     23992 TIP3     2252     TIP3     OH2      OT      -0.834000       15.9994           0
     23993 TIP3     2252     TIP3     H1       HT       0.417000       1.00800           0
     23994 TIP3     2252     TIP3     H2       HT       0.417000       1.00800           0
     23995 TIP3     2253     TIP3     OH2      OT      -0.834000       15.9994           0
     23996 TIP3     2253     TIP3     H1       HT       0.417000       1.00800           0
     23997 TIP3     2253     TIP3     H2       HT       0.417000       1.00800           0
     23998 TIP3     2254     TIP3     OH2      OT      -0.834000       15.9994           0
     23999 TIP3     2254     TIP3     H1       HT       0.417000       1.00800           0
     24000 TIP3     2254     TIP3     H2       HT       0.417000       1.00800           0
     24001 TIP3     2255     TIP3     OH2      OT      -0.834000       15.9994           0
     24002 TIP3     2255     TIP3     H1       HT       0.417000       1.00800           0
     24003 TIP3     2255     TIP3     H2       HT       0.417000       1.00800           0
     24004 TIP3     2256     TIP3     OH2      OT      -0.834000       15.9994           0
     24005 TIP3     2256     TIP3     H1       HT       0.417000       1.00800           0
     24006 TIP3     2256     TIP3     H2       HT       0.417000       1.00800           0
     24007 TIP3     2257     TIP3     OH2      OT      -0.834000       15.9994           0
     24008 TIP3     2257     TIP3     H1       HT       0.417000       1.00800           0
     24009 TIP3     2257     TIP3     H2       HT       0.417000       1.00800           0
     24010 TIP3     2258     TIP3     OH2      OT      -0.834000       15.9994           0
     24011 TIP3     2258     TIP3     H1       HT       0.417000       1.00800           0
     24012 TIP3     2258     TIP3     H2       HT       0.417000       1.00800           0
     24013 TIP3     2259     TIP3     OH2      OT      -0.834000       15.9994           0
     24014 TIP3     2259     TIP3     H1       HT       0.417000       1.00800           0
     24015 TIP3     2259     TIP3     H2       HT       0.417000       1.00800           0
     24016 TIP3     2260     TIP3     OH2      OT      -0.834000       15.9994           0
     24017 TIP3     2260     TIP3     H1       HT       0.417000       1.00800           0
     24018 TIP3     2260     TIP3     H2       HT       0.417000       1.00800           0
     24019 TIP3     2261     TIP3     OH2      OT      -0.834000       15.9994           0
     24020 TIP3     2261     TIP3     H1       HT       0.417000       1.00800           0
     24021 TIP3     2261     TIP3     H2       HT       0.417000       1.00800           0
     24022 TIP3     2262     TIP3     OH2      OT      -0.834000       15.9994           0
     24023 TIP3     2262     TIP3     H1       HT       0.417000       1.00800           0
     24024 TIP3     2262     TIP3     H2       HT       0.417000       1.00800           0
     24025 TIP3     2263     TIP3     OH2      OT      -0.834000       15.9994           0
     24026 TIP3     2263     TIP3     H1       HT       0.417000       1.00800           0
     24027 TIP3     2263     TIP3     H2       HT       0.417000       1.00800           0
     24028 TIP3     2264     TIP3     OH2      OT      -0.834000       15.9994           0
     24029 TIP3     2264     TIP3     H1       HT       0.417000       1.00800           0
     24030 TIP3     2264     TIP3     H2       HT       0.417000       1.00800           0
     24031 TIP3     2265     TIP3     OH2      OT      -0.834000       15.9994           0
     24032 TIP3     2265     TIP3     H1       HT       0.417000       1.00800           0
     24033 TIP3     2265     TIP3     H2       HT       0.417000       1.00800           0
     24034 TIP3     2266     TIP3     OH2      OT      -0.834000       15.9994           0
     24035 TIP3     2266     TIP3     H1       HT       0.417000       1.00800           0
     24036 TIP3     2266     TIP3     H2       HT       0.417000       1.00800           0
     24037 TIP3     2267     TIP3     OH2      OT      -0.834000       15.9994           0
     24038 TIP3     2267     TIP3     H1       HT       0.417000       1.00800           0
     24039 TIP3     2267     TIP3     H2       HT       0.417000       1.00800           0
     24040 TIP3     2268     TIP3     OH2      OT      -0.834000       15.9994           0
     24041 TIP3     2268     TIP3     H1       HT       0.417000       1.00800           0
     24042 TIP3     2268     TIP3     H2       HT       0.417000       1.00800           0
     24043 TIP3     2269     TIP3     OH2      OT      -0.834000       15.9994           0
     24044 TIP3     2269     TIP3     H1       HT       0.417000       1.00800           0
     24045 TIP3     2269     TIP3     H2       HT       0.417000       1.00800           0
     24046 TIP3     2270     TIP3     OH2      OT      -0.834000       15.9994           0
     24047 TIP3     2270     TIP3     H1       HT       0.417000       1.00800           0
     24048 TIP3     2270     TIP3     H2       HT       0.417000       1.00800           0
     24049 TIP3     2271     TIP3     OH2      OT      -0.834000       15.9994           0
     24050 TIP3     2271     TIP3     H1       HT       0.417000       1.00800           0
     24051 TIP3     2271     TIP3     H2       HT       0.417000       1.00800           0
     24052 TIP3     2272     TIP3     OH2      OT      -0.834000       15.9994           0
     24053 TIP3     2272     TIP3     H1       HT       0.417000       1.00800           0
     24054 TIP3     2272     TIP3     H2       HT       0.417000       1.00800           0
     24055 TIP3     2273     TIP3     OH2      OT      -0.834000       15.9994           0
     24056 TIP3     2273     TIP3     H1       HT       0.417000       1.00800           0
     24057 TIP3     2273     TIP3     H2       HT       0.417000       1.00800           0
     24058 TIP3     2274     TIP3     OH2      OT      -0.834000       15.9994           0
     24059 TIP3     2274     TIP3     H1       HT       0.417000       1.00800           0
     24060 TIP3     2274     TIP3     H2       HT       0.417000       1.00800           0
     24061 TIP3     2275     TIP3     OH2      OT      -0.834000       15.9994           0
     24062 TIP3     2275     TIP3     H1       HT       0.417000       1.00800           0
     24063 TIP3     2275     TIP3     H2       HT       0.417000       1.00800           0
     24064 TIP3     2276     TIP3     OH2      OT      -0.834000       15.9994           0
     24065 TIP3     2276     TIP3     H1       HT       0.417000       1.00800           0
     24066 TIP3     2276     TIP3     H2       HT       0.417000       1.00800           0
     24067 TIP3     2277     TIP3     OH2      OT      -0.834000       15.9994           0
     24068 TIP3     2277     TIP3     H1       HT       0.417000       1.00800           0
     24069 TIP3     2277     TIP3     H2       HT       0.417000       1.00800           0
     24070 TIP3     2278     TIP3     OH2      OT      -0.834000       15.9994           0
     24071 TIP3     2278     TIP3     H1       HT       0.417000       1.00800           0
     24072 TIP3     2278     TIP3     H2       HT       0.417000       1.00800           0
     24073 TIP3     2279     TIP3     OH2      OT      -0.834000       15.9994           0
     24074 TIP3     2279     TIP3     H1       HT       0.417000       1.00800           0
     24075 TIP3     2279     TIP3     H2       HT       0.417000       1.00800           0
     24076 TIP3     2280     TIP3     OH2      OT      -0.834000       15.9994           0
     24077 TIP3     2280     TIP3     H1       HT       0.417000       1.00800           0
     24078 TIP3     2280     TIP3     H2       HT       0.417000       1.00800           0
     24079 TIP3     2281     TIP3     OH2      OT      -0.834000       15.9994           0
     24080 TIP3     2281     TIP3     H1       HT       0.417000       1.00800           0
     24081 TIP3     2281     TIP3     H2       HT       0.417000       1.00800           0
     24082 TIP3     2282     TIP3     OH2      OT      -0.834000       15.9994           0
     24083 TIP3     2282     TIP3     H1       HT       0.417000       1.00800           0
     24084 TIP3     2282     TIP3     H2       HT       0.417000       1.00800           0
     24085 TIP3     2283     TIP3     OH2      OT      -0.834000       15.9994           0
     24086 TIP3     2283     TIP3     H1       HT       0.417000       1.00800           0
     24087 TIP3     2283     TIP3     H2       HT       0.417000       1.00800           0
     24088 TIP3     2284     TIP3     OH2      OT      -0.834000       15.9994           0
     24089 TIP3     2284     TIP3     H1       HT       0.417000       1.00800           0
     24090 TIP3     2284     TIP3     H2       HT       0.417000       1.00800           0
     24091 TIP3     2285     TIP3     OH2      OT      -0.834000       15.9994           0
     24092 TIP3     2285     TIP3     H1       HT       0.417000       1.00800           0
     24093 TIP3     2285     TIP3     H2       HT       0.417000       1.00800           0
     24094 TIP3     2286     TIP3     OH2      OT      -0.834000       15.9994           0
     24095 TIP3     2286     TIP3     H1       HT       0.417000       1.00800           0
     24096 TIP3     2286     TIP3     H2       HT       0.417000       1.00800           0
     24097 TIP3     2287     TIP3     OH2      OT      -0.834000       15.9994           0
     24098 TIP3     2287     TIP3     H1       HT       0.417000       1.00800           0
     24099 TIP3     2287     TIP3     H2       HT       0.417000       1.00800           0
     24100 TIP3     2288     TIP3     OH2      OT      -0.834000       15.9994           0
     24101 TIP3     2288     TIP3     H1       HT       0.417000       1.00800           0
     24102 TIP3     2288     TIP3     H2       HT       0.417000       1.00800           0
     24103 TIP3     2289     TIP3     OH2      OT      -0.834000       15.9994           0
     24104 TIP3     2289     TIP3     H1       HT       0.417000       1.00800           0
     24105 TIP3     2289     TIP3     H2       HT       0.417000       1.00800           0
     24106 TIP3     2290     TIP3     OH2      OT      -0.834000       15.9994           0
     24107 TIP3     2290     TIP3     H1       HT       0.417000       1.00800           0
     24108 TIP3     2290     TIP3     H2       HT       0.417000       1.00800           0
     24109 TIP3     2291     TIP3     OH2      OT      -0.834000       15.9994           0
     24110 TIP3     2291     TIP3     H1       HT       0.417000       1.00800           0
     24111 TIP3     2291     TIP3     H2       HT       0.417000       1.00800           0
     24112 TIP3     2292     TIP3     OH2      OT      -0.834000       15.9994           0
     24113 TIP3     2292     TIP3     H1       HT       0.417000       1.00800           0
     24114 TIP3     2292     TIP3     H2       HT       0.417000       1.00800           0
     24115 TIP3     2293     TIP3     OH2      OT      -0.834000       15.9994           0
     24116 TIP3     2293     TIP3     H1       HT       0.417000       1.00800           0
     24117 TIP3     2293     TIP3     H2       HT       0.417000       1.00800           0
     24118 TIP3     2294     TIP3     OH2      OT      -0.834000       15.9994           0
     24119 TIP3     2294     TIP3     H1       HT       0.417000       1.00800           0
     24120 TIP3     2294     TIP3     H2       HT       0.417000       1.00800           0
     24121 TIP3     2295     TIP3     OH2      OT      -0.834000       15.9994           0
     24122 TIP3     2295     TIP3     H1       HT       0.417000       1.00800           0
     24123 TIP3     2295     TIP3     H2       HT       0.417000       1.00800           0
     24124 TIP3     2296     TIP3     OH2      OT      -0.834000       15.9994           0
     24125 TIP3     2296     TIP3     H1       HT       0.417000       1.00800           0
     24126 TIP3     2296     TIP3     H2       HT       0.417000       1.00800           0
     24127 TIP3     2297     TIP3     OH2      OT      -0.834000       15.9994           0
     24128 TIP3     2297     TIP3     H1       HT       0.417000       1.00800           0
     24129 TIP3     2297     TIP3     H2       HT       0.417000       1.00800           0
     24130 TIP3     2298     TIP3     OH2      OT      -0.834000       15.9994           0
     24131 TIP3     2298     TIP3     H1       HT       0.417000       1.00800           0
     24132 TIP3     2298     TIP3     H2       HT       0.417000       1.00800           0
     24133 TIP3     2299     TIP3     OH2      OT      -0.834000       15.9994           0
     24134 TIP3     2299     TIP3     H1       HT       0.417000       1.00800           0
     24135 TIP3     2299     TIP3     H2       HT       0.417000       1.00800           0
     24136 TIP3     2300     TIP3     OH2      OT      -0.834000       15.9994           0
     24137 TIP3     2300     TIP3     H1       HT       0.417000       1.00800           0
     24138 TIP3     2300     TIP3     H2       HT       0.417000       1.00800           0
     24139 TIP3     2301     TIP3     OH2      OT      -0.834000       15.9994           0
     24140 TIP3     2301     TIP3     H1       HT       0.417000       1.00800           0
     24141 TIP3     2301     TIP3     H2       HT       0.417000       1.00800           0
     24142 TIP3     2302     TIP3     OH2      OT      -0.834000       15.9994           0
     24143 TIP3     2302     TIP3     H1       HT       0.417000       1.00800           0
     24144 TIP3     2302     TIP3     H2       HT       0.417000       1.00800           0
     24145 TIP3     2303     TIP3     OH2      OT      -0.834000       15.9994           0
     24146 TIP3     2303     TIP3     H1       HT       0.417000       1.00800           0
     24147 TIP3     2303     TIP3     H2       HT       0.417000       1.00800           0
     24148 TIP3     2304     TIP3     OH2      OT      -0.834000       15.9994           0
     24149 TIP3     2304     TIP3     H1       HT       0.417000       1.00800           0
     24150 TIP3     2304     TIP3     H2       HT       0.417000       1.00800           0
     24151 TIP3     2305     TIP3     OH2      OT      -0.834000       15.9994           0
     24152 TIP3     2305     TIP3     H1       HT       0.417000       1.00800           0
     24153 TIP3     2305     TIP3     H2       HT       0.417000       1.00800           0
     24154 TIP3     2306     TIP3     OH2      OT      -0.834000       15.9994           0
     24155 TIP3     2306     TIP3     H1       HT       0.417000       1.00800           0
     24156 TIP3     2306     TIP3     H2       HT       0.417000       1.00800           0
     24157 TIP3     2307     TIP3     OH2      OT      -0.834000       15.9994           0
     24158 TIP3     2307     TIP3     H1       HT       0.417000       1.00800           0
     24159 TIP3     2307     TIP3     H2       HT       0.417000       1.00800           0
     24160 TIP3     2308     TIP3     OH2      OT      -0.834000       15.9994           0
     24161 TIP3     2308     TIP3     H1       HT       0.417000       1.00800           0
     24162 TIP3     2308     TIP3     H2       HT       0.417000       1.00800           0
     24163 TIP3     2309     TIP3     OH2      OT      -0.834000       15.9994           0
     24164 TIP3     2309     TIP3     H1       HT       0.417000       1.00800           0
     24165 TIP3     2309     TIP3     H2       HT       0.417000       1.00800           0
     24166 TIP3     2310     TIP3     OH2      OT      -0.834000       15.9994           0
     24167 TIP3     2310     TIP3     H1       HT       0.417000       1.00800           0
     24168 TIP3     2310     TIP3     H2       HT       0.417000       1.00800           0
     24169 TIP3     2311     TIP3     OH2      OT      -0.834000       15.9994           0
     24170 TIP3     2311     TIP3     H1       HT       0.417000       1.00800           0
     24171 TIP3     2311     TIP3     H2       HT       0.417000       1.00800           0
     24172 TIP3     2312     TIP3     OH2      OT      -0.834000       15.9994           0
     24173 TIP3     2312     TIP3     H1       HT       0.417000       1.00800           0
     24174 TIP3     2312     TIP3     H2       HT       0.417000       1.00800           0
     24175 TIP3     2313     TIP3     OH2      OT      -0.834000       15.9994           0
     24176 TIP3     2313     TIP3     H1       HT       0.417000       1.00800           0
     24177 TIP3     2313     TIP3     H2       HT       0.417000       1.00800           0
     24178 TIP3     2314     TIP3     OH2      OT      -0.834000       15.9994           0
     24179 TIP3     2314     TIP3     H1       HT       0.417000       1.00800           0
     24180 TIP3     2314     TIP3     H2       HT       0.417000       1.00800           0
     24181 TIP3     2315     TIP3     OH2      OT      -0.834000       15.9994           0
     24182 TIP3     2315     TIP3     H1       HT       0.417000       1.00800           0
     24183 TIP3     2315     TIP3     H2       HT       0.417000       1.00800           0
     24184 TIP3     2316     TIP3     OH2      OT      -0.834000       15.9994           0
     24185 TIP3     2316     TIP3     H1       HT       0.417000       1.00800           0
     24186 TIP3     2316     TIP3     H2       HT       0.417000       1.00800           0
     24187 TIP3     2317     TIP3     OH2      OT      -0.834000       15.9994           0
     24188 TIP3     2317     TIP3     H1       HT       0.417000       1.00800           0
     24189 TIP3     2317     TIP3     H2       HT       0.417000       1.00800           0
     24190 TIP3     2318     TIP3     OH2      OT      -0.834000       15.9994           0
     24191 TIP3     2318     TIP3     H1       HT       0.417000       1.00800           0
     24192 TIP3     2318     TIP3     H2       HT       0.417000       1.00800           0
     24193 TIP3     2319     TIP3     OH2      OT      -0.834000       15.9994           0
     24194 TIP3     2319     TIP3     H1       HT       0.417000       1.00800           0
     24195 TIP3     2319     TIP3     H2       HT       0.417000       1.00800           0
     24196 TIP3     2320     TIP3     OH2      OT      -0.834000       15.9994           0
     24197 TIP3     2320     TIP3     H1       HT       0.417000       1.00800           0
     24198 TIP3     2320     TIP3     H2       HT       0.417000       1.00800           0
     24199 TIP3     2321     TIP3     OH2      OT      -0.834000       15.9994           0
     24200 TIP3     2321     TIP3     H1       HT       0.417000       1.00800           0
     24201 TIP3     2321     TIP3     H2       HT       0.417000       1.00800           0
     24202 TIP3     2322     TIP3     OH2      OT      -0.834000       15.9994           0
     24203 TIP3     2322     TIP3     H1       HT       0.417000       1.00800           0
     24204 TIP3     2322     TIP3     H2       HT       0.417000       1.00800           0
     24205 TIP3     2323     TIP3     OH2      OT      -0.834000       15.9994           0
     24206 TIP3     2323     TIP3     H1       HT       0.417000       1.00800           0
     24207 TIP3     2323     TIP3     H2       HT       0.417000       1.00800           0
     24208 TIP3     2324     TIP3     OH2      OT      -0.834000       15.9994           0
     24209 TIP3     2324     TIP3     H1       HT       0.417000       1.00800           0
     24210 TIP3     2324     TIP3     H2       HT       0.417000       1.00800           0
     24211 TIP3     2325     TIP3     OH2      OT      -0.834000       15.9994           0
     24212 TIP3     2325     TIP3     H1       HT       0.417000       1.00800           0
     24213 TIP3     2325     TIP3     H2       HT       0.417000       1.00800           0
     24214 TIP3     2326     TIP3     OH2      OT      -0.834000       15.9994           0
     24215 TIP3     2326     TIP3     H1       HT       0.417000       1.00800           0
     24216 TIP3     2326     TIP3     H2       HT       0.417000       1.00800           0
     24217 TIP3     2327     TIP3     OH2      OT      -0.834000       15.9994           0
     24218 TIP3     2327     TIP3     H1       HT       0.417000       1.00800           0
     24219 TIP3     2327     TIP3     H2       HT       0.417000       1.00800           0
     24220 TIP3     2328     TIP3     OH2      OT      -0.834000       15.9994           0
     24221 TIP3     2328     TIP3     H1       HT       0.417000       1.00800           0
     24222 TIP3     2328     TIP3     H2       HT       0.417000       1.00800           0
     24223 TIP3     2329     TIP3     OH2      OT      -0.834000       15.9994           0
     24224 TIP3     2329     TIP3     H1       HT       0.417000       1.00800           0
     24225 TIP3     2329     TIP3     H2       HT       0.417000       1.00800           0
     24226 TIP3     2330     TIP3     OH2      OT      -0.834000       15.9994           0
     24227 TIP3     2330     TIP3     H1       HT       0.417000       1.00800           0
     24228 TIP3     2330     TIP3     H2       HT       0.417000       1.00800           0
     24229 TIP3     2331     TIP3     OH2      OT      -0.834000       15.9994           0
     24230 TIP3     2331     TIP3     H1       HT       0.417000       1.00800           0
     24231 TIP3     2331     TIP3     H2       HT       0.417000       1.00800           0
     24232 TIP3     2332     TIP3     OH2      OT      -0.834000       15.9994           0
     24233 TIP3     2332     TIP3     H1       HT       0.417000       1.00800           0
     24234 TIP3     2332     TIP3     H2       HT       0.417000       1.00800           0
     24235 TIP3     2333     TIP3     OH2      OT      -0.834000       15.9994           0
     24236 TIP3     2333     TIP3     H1       HT       0.417000       1.00800           0
     24237 TIP3     2333     TIP3     H2       HT       0.417000       1.00800           0
     24238 TIP3     2334     TIP3     OH2      OT      -0.834000       15.9994           0
     24239 TIP3     2334     TIP3     H1       HT       0.417000       1.00800           0
     24240 TIP3     2334     TIP3     H2       HT       0.417000       1.00800           0
     24241 TIP3     2335     TIP3     OH2      OT      -0.834000       15.9994           0
     24242 TIP3     2335     TIP3     H1       HT       0.417000       1.00800           0
     24243 TIP3     2335     TIP3     H2       HT       0.417000       1.00800           0
     24244 TIP3     2336     TIP3     OH2      OT      -0.834000       15.9994           0
     24245 TIP3     2336     TIP3     H1       HT       0.417000       1.00800           0
     24246 TIP3     2336     TIP3     H2       HT       0.417000       1.00800           0
     24247 TIP3     2337     TIP3     OH2      OT      -0.834000       15.9994           0
     24248 TIP3     2337     TIP3     H1       HT       0.417000       1.00800           0
     24249 TIP3     2337     TIP3     H2       HT       0.417000       1.00800           0
     24250 TIP3     2338     TIP3     OH2      OT      -0.834000       15.9994           0
     24251 TIP3     2338     TIP3     H1       HT       0.417000       1.00800           0
     24252 TIP3     2338     TIP3     H2       HT       0.417000       1.00800           0
     24253 TIP3     2339     TIP3     OH2      OT      -0.834000       15.9994           0
     24254 TIP3     2339     TIP3     H1       HT       0.417000       1.00800           0
     24255 TIP3     2339     TIP3     H2       HT       0.417000       1.00800           0
     24256 TIP3     2340     TIP3     OH2      OT      -0.834000       15.9994           0
     24257 TIP3     2340     TIP3     H1       HT       0.417000       1.00800           0
     24258 TIP3     2340     TIP3     H2       HT       0.417000       1.00800           0
     24259 TIP3     2341     TIP3     OH2      OT      -0.834000       15.9994           0
     24260 TIP3     2341     TIP3     H1       HT       0.417000       1.00800           0
     24261 TIP3     2341     TIP3     H2       HT       0.417000       1.00800           0
     24262 TIP3     2342     TIP3     OH2      OT      -0.834000       15.9994           0
     24263 TIP3     2342     TIP3     H1       HT       0.417000       1.00800           0
     24264 TIP3     2342     TIP3     H2       HT       0.417000       1.00800           0
     24265 TIP3     2343     TIP3     OH2      OT      -0.834000       15.9994           0
     24266 TIP3     2343     TIP3     H1       HT       0.417000       1.00800           0
     24267 TIP3     2343     TIP3     H2       HT       0.417000       1.00800           0
     24268 TIP3     2344     TIP3     OH2      OT      -0.834000       15.9994           0
     24269 TIP3     2344     TIP3     H1       HT       0.417000       1.00800           0
     24270 TIP3     2344     TIP3     H2       HT       0.417000       1.00800           0
     24271 TIP3     2345     TIP3     OH2      OT      -0.834000       15.9994           0
     24272 TIP3     2345     TIP3     H1       HT       0.417000       1.00800           0
     24273 TIP3     2345     TIP3     H2       HT       0.417000       1.00800           0
     24274 TIP3     2346     TIP3     OH2      OT      -0.834000       15.9994           0
     24275 TIP3     2346     TIP3     H1       HT       0.417000       1.00800           0
     24276 TIP3     2346     TIP3     H2       HT       0.417000       1.00800           0
     24277 TIP3     2347     TIP3     OH2      OT      -0.834000       15.9994           0
     24278 TIP3     2347     TIP3     H1       HT       0.417000       1.00800           0
     24279 TIP3     2347     TIP3     H2       HT       0.417000       1.00800           0
     24280 TIP3     2348     TIP3     OH2      OT      -0.834000       15.9994           0
     24281 TIP3     2348     TIP3     H1       HT       0.417000       1.00800           0
     24282 TIP3     2348     TIP3     H2       HT       0.417000       1.00800           0
     24283 TIP3     2349     TIP3     OH2      OT      -0.834000       15.9994           0
     24284 TIP3     2349     TIP3     H1       HT       0.417000       1.00800           0
     24285 TIP3     2349     TIP3     H2       HT       0.417000       1.00800           0
     24286 TIP3     2350     TIP3     OH2      OT      -0.834000       15.9994           0
     24287 TIP3     2350     TIP3     H1       HT       0.417000       1.00800           0
     24288 TIP3     2350     TIP3     H2       HT       0.417000       1.00800           0
     24289 TIP3     2351     TIP3     OH2      OT      -0.834000       15.9994           0
     24290 TIP3     2351     TIP3     H1       HT       0.417000       1.00800           0
     24291 TIP3     2351     TIP3     H2       HT       0.417000       1.00800           0
     24292 TIP3     2352     TIP3     OH2      OT      -0.834000       15.9994           0
     24293 TIP3     2352     TIP3     H1       HT       0.417000       1.00800           0
     24294 TIP3     2352     TIP3     H2       HT       0.417000       1.00800           0
     24295 TIP3     2353     TIP3     OH2      OT      -0.834000       15.9994           0
     24296 TIP3     2353     TIP3     H1       HT       0.417000       1.00800           0
     24297 TIP3     2353     TIP3     H2       HT       0.417000       1.00800           0
     24298 TIP3     2354     TIP3     OH2      OT      -0.834000       15.9994           0
     24299 TIP3     2354     TIP3     H1       HT       0.417000       1.00800           0
     24300 TIP3     2354     TIP3     H2       HT       0.417000       1.00800           0
     24301 TIP3     2355     TIP3     OH2      OT      -0.834000       15.9994           0
     24302 TIP3     2355     TIP3     H1       HT       0.417000       1.00800           0
     24303 TIP3     2355     TIP3     H2       HT       0.417000       1.00800           0
     24304 TIP3     2356     TIP3     OH2      OT      -0.834000       15.9994           0
     24305 TIP3     2356     TIP3     H1       HT       0.417000       1.00800           0
     24306 TIP3     2356     TIP3     H2       HT       0.417000       1.00800           0
     24307 TIP3     2357     TIP3     OH2      OT      -0.834000       15.9994           0
     24308 TIP3     2357     TIP3     H1       HT       0.417000       1.00800           0
     24309 TIP3     2357     TIP3     H2       HT       0.417000       1.00800           0
     24310 TIP3     2358     TIP3     OH2      OT      -0.834000       15.9994           0
     24311 TIP3     2358     TIP3     H1       HT       0.417000       1.00800           0
     24312 TIP3     2358     TIP3     H2       HT       0.417000       1.00800           0
     24313 TIP3     2359     TIP3     OH2      OT      -0.834000       15.9994           0
     24314 TIP3     2359     TIP3     H1       HT       0.417000       1.00800           0
     24315 TIP3     2359     TIP3     H2       HT       0.417000       1.00800           0
     24316 TIP3     2360     TIP3     OH2      OT      -0.834000       15.9994           0
     24317 TIP3     2360     TIP3     H1       HT       0.417000       1.00800           0
     24318 TIP3     2360     TIP3     H2       HT       0.417000       1.00800           0
     24319 TIP3     2361     TIP3     OH2      OT      -0.834000       15.9994           0
     24320 TIP3     2361     TIP3     H1       HT       0.417000       1.00800           0
     24321 TIP3     2361     TIP3     H2       HT       0.417000       1.00800           0
     24322 TIP3     2362     TIP3     OH2      OT      -0.834000       15.9994           0
     24323 TIP3     2362     TIP3     H1       HT       0.417000       1.00800           0
     24324 TIP3     2362     TIP3     H2       HT       0.417000       1.00800           0
     24325 TIP3     2363     TIP3     OH2      OT      -0.834000       15.9994           0
     24326 TIP3     2363     TIP3     H1       HT       0.417000       1.00800           0
     24327 TIP3     2363     TIP3     H2       HT       0.417000       1.00800           0
     24328 TIP3     2364     TIP3     OH2      OT      -0.834000       15.9994           0
     24329 TIP3     2364     TIP3     H1       HT       0.417000       1.00800           0
     24330 TIP3     2364     TIP3     H2       HT       0.417000       1.00800           0
     24331 TIP3     2365     TIP3     OH2      OT      -0.834000       15.9994           0
     24332 TIP3     2365     TIP3     H1       HT       0.417000       1.00800           0
     24333 TIP3     2365     TIP3     H2       HT       0.417000       1.00800           0
     24334 TIP3     2366     TIP3     OH2      OT      -0.834000       15.9994           0
     24335 TIP3     2366     TIP3     H1       HT       0.417000       1.00800           0
     24336 TIP3     2366     TIP3     H2       HT       0.417000       1.00800           0
     24337 TIP3     2367     TIP3     OH2      OT      -0.834000       15.9994           0
     24338 TIP3     2367     TIP3     H1       HT       0.417000       1.00800           0
     24339 TIP3     2367     TIP3     H2       HT       0.417000       1.00800           0
     24340 TIP3     2368     TIP3     OH2      OT      -0.834000       15.9994           0
     24341 TIP3     2368     TIP3     H1       HT       0.417000       1.00800           0
     24342 TIP3     2368     TIP3     H2       HT       0.417000       1.00800           0
     24343 TIP3     2369     TIP3     OH2      OT      -0.834000       15.9994           0
     24344 TIP3     2369     TIP3     H1       HT       0.417000       1.00800           0
     24345 TIP3     2369     TIP3     H2       HT       0.417000       1.00800           0
     24346 TIP3     2370     TIP3     OH2      OT      -0.834000       15.9994           0
     24347 TIP3     2370     TIP3     H1       HT       0.417000       1.00800           0
     24348 TIP3     2370     TIP3     H2       HT       0.417000       1.00800           0
     24349 TIP3     2371     TIP3     OH2      OT      -0.834000       15.9994           0
     24350 TIP3     2371     TIP3     H1       HT       0.417000       1.00800           0
     24351 TIP3     2371     TIP3     H2       HT       0.417000       1.00800           0
     24352 TIP3     2372     TIP3     OH2      OT      -0.834000       15.9994           0
     24353 TIP3     2372     TIP3     H1       HT       0.417000       1.00800           0
     24354 TIP3     2372     TIP3     H2       HT       0.417000       1.00800           0
     24355 TIP3     2373     TIP3     OH2      OT      -0.834000       15.9994           0
     24356 TIP3     2373     TIP3     H1       HT       0.417000       1.00800           0
     24357 TIP3     2373     TIP3     H2       HT       0.417000       1.00800           0
     24358 TIP3     2374     TIP3     OH2      OT      -0.834000       15.9994           0
     24359 TIP3     2374     TIP3     H1       HT       0.417000       1.00800           0
     24360 TIP3     2374     TIP3     H2       HT       0.417000       1.00800           0
     24361 TIP3     2375     TIP3     OH2      OT      -0.834000       15.9994           0
     24362 TIP3     2375     TIP3     H1       HT       0.417000       1.00800           0
     24363 TIP3     2375     TIP3     H2       HT       0.417000       1.00800           0
     24364 TIP3     2376     TIP3     OH2      OT      -0.834000       15.9994           0
     24365 TIP3     2376     TIP3     H1       HT       0.417000       1.00800           0
     24366 TIP3     2376     TIP3     H2       HT       0.417000       1.00800           0
     24367 TIP3     2377     TIP3     OH2      OT      -0.834000       15.9994           0
     24368 TIP3     2377     TIP3     H1       HT       0.417000       1.00800           0
     24369 TIP3     2377     TIP3     H2       HT       0.417000       1.00800           0
     24370 TIP3     2378     TIP3     OH2      OT      -0.834000       15.9994           0
     24371 TIP3     2378     TIP3     H1       HT       0.417000       1.00800           0
     24372 TIP3     2378     TIP3     H2       HT       0.417000       1.00800           0
     24373 TIP3     2379     TIP3     OH2      OT      -0.834000       15.9994           0
     24374 TIP3     2379     TIP3     H1       HT       0.417000       1.00800           0
     24375 TIP3     2379     TIP3     H2       HT       0.417000       1.00800           0
     24376 TIP3     2380     TIP3     OH2      OT      -0.834000       15.9994           0
     24377 TIP3     2380     TIP3     H1       HT       0.417000       1.00800           0
     24378 TIP3     2380     TIP3     H2       HT       0.417000       1.00800           0
     24379 TIP3     2381     TIP3     OH2      OT      -0.834000       15.9994           0
     24380 TIP3     2381     TIP3     H1       HT       0.417000       1.00800           0
     24381 TIP3     2381     TIP3     H2       HT       0.417000       1.00800           0
     24382 TIP3     2382     TIP3     OH2      OT      -0.834000       15.9994           0
     24383 TIP3     2382     TIP3     H1       HT       0.417000       1.00800           0
     24384 TIP3     2382     TIP3     H2       HT       0.417000       1.00800           0
     24385 TIP3     2383     TIP3     OH2      OT      -0.834000       15.9994           0
     24386 TIP3     2383     TIP3     H1       HT       0.417000       1.00800           0
     24387 TIP3     2383     TIP3     H2       HT       0.417000       1.00800           0
     24388 TIP3     2384     TIP3     OH2      OT      -0.834000       15.9994           0
     24389 TIP3     2384     TIP3     H1       HT       0.417000       1.00800           0
     24390 TIP3     2384     TIP3     H2       HT       0.417000       1.00800           0
     24391 TIP3     2385     TIP3     OH2      OT      -0.834000       15.9994           0
     24392 TIP3     2385     TIP3     H1       HT       0.417000       1.00800           0
     24393 TIP3     2385     TIP3     H2       HT       0.417000       1.00800           0
     24394 TIP3     2386     TIP3     OH2      OT      -0.834000       15.9994           0
     24395 TIP3     2386     TIP3     H1       HT       0.417000       1.00800           0
     24396 TIP3     2386     TIP3     H2       HT       0.417000       1.00800           0
     24397 TIP3     2387     TIP3     OH2      OT      -0.834000       15.9994           0
     24398 TIP3     2387     TIP3     H1       HT       0.417000       1.00800           0
     24399 TIP3     2387     TIP3     H2       HT       0.417000       1.00800           0
     24400 TIP3     2388     TIP3     OH2      OT      -0.834000       15.9994           0
     24401 TIP3     2388     TIP3     H1       HT       0.417000       1.00800           0
     24402 TIP3     2388     TIP3     H2       HT       0.417000       1.00800           0
     24403 TIP3     2389     TIP3     OH2      OT      -0.834000       15.9994           0
     24404 TIP3     2389     TIP3     H1       HT       0.417000       1.00800           0
     24405 TIP3     2389     TIP3     H2       HT       0.417000       1.00800           0
     24406 TIP3     2390     TIP3     OH2      OT      -0.834000       15.9994           0
     24407 TIP3     2390     TIP3     H1       HT       0.417000       1.00800           0
     24408 TIP3     2390     TIP3     H2       HT       0.417000       1.00800           0
     24409 TIP3     2391     TIP3     OH2      OT      -0.834000       15.9994           0
     24410 TIP3     2391     TIP3     H1       HT       0.417000       1.00800           0
     24411 TIP3     2391     TIP3     H2       HT       0.417000       1.00800           0
     24412 TIP3     2392     TIP3     OH2      OT      -0.834000       15.9994           0
     24413 TIP3     2392     TIP3     H1       HT       0.417000       1.00800           0
     24414 TIP3     2392     TIP3     H2       HT       0.417000       1.00800           0
     24415 TIP3     2393     TIP3     OH2      OT      -0.834000       15.9994           0
     24416 TIP3     2393     TIP3     H1       HT       0.417000       1.00800           0
     24417 TIP3     2393     TIP3     H2       HT       0.417000       1.00800           0
     24418 TIP3     2394     TIP3     OH2      OT      -0.834000       15.9994           0
     24419 TIP3     2394     TIP3     H1       HT       0.417000       1.00800           0
     24420 TIP3     2394     TIP3     H2       HT       0.417000       1.00800           0
     24421 TIP3     2395     TIP3     OH2      OT      -0.834000       15.9994           0
     24422 TIP3     2395     TIP3     H1       HT       0.417000       1.00800           0
     24423 TIP3     2395     TIP3     H2       HT       0.417000       1.00800           0
     24424 TIP3     2396     TIP3     OH2      OT      -0.834000       15.9994           0
     24425 TIP3     2396     TIP3     H1       HT       0.417000       1.00800           0
     24426 TIP3     2396     TIP3     H2       HT       0.417000       1.00800           0
     24427 TIP3     2397     TIP3     OH2      OT      -0.834000       15.9994           0
     24428 TIP3     2397     TIP3     H1       HT       0.417000       1.00800           0
     24429 TIP3     2397     TIP3     H2       HT       0.417000       1.00800           0
     24430 TIP3     2398     TIP3     OH2      OT      -0.834000       15.9994           0
     24431 TIP3     2398     TIP3     H1       HT       0.417000       1.00800           0
     24432 TIP3     2398     TIP3     H2       HT       0.417000       1.00800           0
     24433 TIP3     2399     TIP3     OH2      OT      -0.834000       15.9994           0
     24434 TIP3     2399     TIP3     H1       HT       0.417000       1.00800           0
     24435 TIP3     2399     TIP3     H2       HT       0.417000       1.00800           0
     24436 TIP3     2400     TIP3     OH2      OT      -0.834000       15.9994           0
     24437 TIP3     2400     TIP3     H1       HT       0.417000       1.00800           0
     24438 TIP3     2400     TIP3     H2       HT       0.417000       1.00800           0
     24439 TIP3     2401     TIP3     OH2      OT      -0.834000       15.9994           0
     24440 TIP3     2401     TIP3     H1       HT       0.417000       1.00800           0
     24441 TIP3     2401     TIP3     H2       HT       0.417000       1.00800           0
     24442 TIP3     2402     TIP3     OH2      OT      -0.834000       15.9994           0
     24443 TIP3     2402     TIP3     H1       HT       0.417000       1.00800           0
     24444 TIP3     2402     TIP3     H2       HT       0.417000       1.00800           0
     24445 TIP3     2403     TIP3     OH2      OT      -0.834000       15.9994           0
     24446 TIP3     2403     TIP3     H1       HT       0.417000       1.00800           0
     24447 TIP3     2403     TIP3     H2       HT       0.417000       1.00800           0
     24448 TIP3     2404     TIP3     OH2      OT      -0.834000       15.9994           0
     24449 TIP3     2404     TIP3     H1       HT       0.417000       1.00800           0
     24450 TIP3     2404     TIP3     H2       HT       0.417000       1.00800           0
     24451 TIP3     2405     TIP3     OH2      OT      -0.834000       15.9994           0
     24452 TIP3     2405     TIP3     H1       HT       0.417000       1.00800           0
     24453 TIP3     2405     TIP3     H2       HT       0.417000       1.00800           0
     24454 TIP3     2406     TIP3     OH2      OT      -0.834000       15.9994           0
     24455 TIP3     2406     TIP3     H1       HT       0.417000       1.00800           0
     24456 TIP3     2406     TIP3     H2       HT       0.417000       1.00800           0
     24457 TIP3     2407     TIP3     OH2      OT      -0.834000       15.9994           0
     24458 TIP3     2407     TIP3     H1       HT       0.417000       1.00800           0
     24459 TIP3     2407     TIP3     H2       HT       0.417000       1.00800           0
     24460 TIP3     2408     TIP3     OH2      OT      -0.834000       15.9994           0
     24461 TIP3     2408     TIP3     H1       HT       0.417000       1.00800           0
     24462 TIP3     2408     TIP3     H2       HT       0.417000       1.00800           0
     24463 TIP3     2409     TIP3     OH2      OT      -0.834000       15.9994           0
     24464 TIP3     2409     TIP3     H1       HT       0.417000       1.00800           0
     24465 TIP3     2409     TIP3     H2       HT       0.417000       1.00800           0
     24466 TIP3     2410     TIP3     OH2      OT      -0.834000       15.9994           0
     24467 TIP3     2410     TIP3     H1       HT       0.417000       1.00800           0
     24468 TIP3     2410     TIP3     H2       HT       0.417000       1.00800           0
     24469 TIP3     2411     TIP3     OH2      OT      -0.834000       15.9994           0
     24470 TIP3     2411     TIP3     H1       HT       0.417000       1.00800           0
     24471 TIP3     2411     TIP3     H2       HT       0.417000       1.00800           0
     24472 TIP3     2412     TIP3     OH2      OT      -0.834000       15.9994           0
     24473 TIP3     2412     TIP3     H1       HT       0.417000       1.00800           0
     24474 TIP3     2412     TIP3     H2       HT       0.417000       1.00800           0
     24475 TIP3     2413     TIP3     OH2      OT      -0.834000       15.9994           0
     24476 TIP3     2413     TIP3     H1       HT       0.417000       1.00800           0
     24477 TIP3     2413     TIP3     H2       HT       0.417000       1.00800           0
     24478 TIP3     2414     TIP3     OH2      OT      -0.834000       15.9994           0
     24479 TIP3     2414     TIP3     H1       HT       0.417000       1.00800           0
     24480 TIP3     2414     TIP3     H2       HT       0.417000       1.00800           0
     24481 TIP3     2415     TIP3     OH2      OT      -0.834000       15.9994           0
     24482 TIP3     2415     TIP3     H1       HT       0.417000       1.00800           0
     24483 TIP3     2415     TIP3     H2       HT       0.417000       1.00800           0
     24484 TIP3     2416     TIP3     OH2      OT      -0.834000       15.9994           0
     24485 TIP3     2416     TIP3     H1       HT       0.417000       1.00800           0
     24486 TIP3     2416     TIP3     H2       HT       0.417000       1.00800           0
     24487 TIP3     2417     TIP3     OH2      OT      -0.834000       15.9994           0
     24488 TIP3     2417     TIP3     H1       HT       0.417000       1.00800           0
     24489 TIP3     2417     TIP3     H2       HT       0.417000       1.00800           0
     24490 TIP3     2418     TIP3     OH2      OT      -0.834000       15.9994           0
     24491 TIP3     2418     TIP3     H1       HT       0.417000       1.00800           0
     24492 TIP3     2418     TIP3     H2       HT       0.417000       1.00800           0
     24493 TIP3     2419     TIP3     OH2      OT      -0.834000       15.9994           0
     24494 TIP3     2419     TIP3     H1       HT       0.417000       1.00800           0
     24495 TIP3     2419     TIP3     H2       HT       0.417000       1.00800           0
     24496 TIP3     2420     TIP3     OH2      OT      -0.834000       15.9994           0
     24497 TIP3     2420     TIP3     H1       HT       0.417000       1.00800           0
     24498 TIP3     2420     TIP3     H2       HT       0.417000       1.00800           0
     24499 TIP3     2421     TIP3     OH2      OT      -0.834000       15.9994           0
     24500 TIP3     2421     TIP3     H1       HT       0.417000       1.00800           0
     24501 TIP3     2421     TIP3     H2       HT       0.417000       1.00800           0
     24502 TIP3     2422     TIP3     OH2      OT      -0.834000       15.9994           0
     24503 TIP3     2422     TIP3     H1       HT       0.417000       1.00800           0
     24504 TIP3     2422     TIP3     H2       HT       0.417000       1.00800           0
     24505 TIP3     2423     TIP3     OH2      OT      -0.834000       15.9994           0
     24506 TIP3     2423     TIP3     H1       HT       0.417000       1.00800           0
     24507 TIP3     2423     TIP3     H2       HT       0.417000       1.00800           0
     24508 TIP3     2424     TIP3     OH2      OT      -0.834000       15.9994           0
     24509 TIP3     2424     TIP3     H1       HT       0.417000       1.00800           0
     24510 TIP3     2424     TIP3     H2       HT       0.417000       1.00800           0
     24511 TIP3     2425     TIP3     OH2      OT      -0.834000       15.9994           0
     24512 TIP3     2425     TIP3     H1       HT       0.417000       1.00800           0
     24513 TIP3     2425     TIP3     H2       HT       0.417000       1.00800           0
     24514 TIP3     2426     TIP3     OH2      OT      -0.834000       15.9994           0
     24515 TIP3     2426     TIP3     H1       HT       0.417000       1.00800           0
     24516 TIP3     2426     TIP3     H2       HT       0.417000       1.00800           0
     24517 TIP3     2427     TIP3     OH2      OT      -0.834000       15.9994           0
     24518 TIP3     2427     TIP3     H1       HT       0.417000       1.00800           0
     24519 TIP3     2427     TIP3     H2       HT       0.417000       1.00800           0
     24520 TIP3     2428     TIP3     OH2      OT      -0.834000       15.9994           0
     24521 TIP3     2428     TIP3     H1       HT       0.417000       1.00800           0
     24522 TIP3     2428     TIP3     H2       HT       0.417000       1.00800           0
     24523 TIP3     2429     TIP3     OH2      OT      -0.834000       15.9994           0
     24524 TIP3     2429     TIP3     H1       HT       0.417000       1.00800           0
     24525 TIP3     2429     TIP3     H2       HT       0.417000       1.00800           0
     24526 TIP3     2430     TIP3     OH2      OT      -0.834000       15.9994           0
     24527 TIP3     2430     TIP3     H1       HT       0.417000       1.00800           0
     24528 TIP3     2430     TIP3     H2       HT       0.417000       1.00800           0
     24529 TIP3     2431     TIP3     OH2      OT      -0.834000       15.9994           0
     24530 TIP3     2431     TIP3     H1       HT       0.417000       1.00800           0
     24531 TIP3     2431     TIP3     H2       HT       0.417000       1.00800           0
     24532 TIP3     2432     TIP3     OH2      OT      -0.834000       15.9994           0
     24533 TIP3     2432     TIP3     H1       HT       0.417000       1.00800           0
     24534 TIP3     2432     TIP3     H2       HT       0.417000       1.00800           0
     24535 TIP3     2433     TIP3     OH2      OT      -0.834000       15.9994           0
     24536 TIP3     2433     TIP3     H1       HT       0.417000       1.00800           0
     24537 TIP3     2433     TIP3     H2       HT       0.417000       1.00800           0
     24538 TIP3     2434     TIP3     OH2      OT      -0.834000       15.9994           0
     24539 TIP3     2434     TIP3     H1       HT       0.417000       1.00800           0
     24540 TIP3     2434     TIP3     H2       HT       0.417000       1.00800           0
     24541 TIP3     2435     TIP3     OH2      OT      -0.834000       15.9994           0
     24542 TIP3     2435     TIP3     H1       HT       0.417000       1.00800           0
     24543 TIP3     2435     TIP3     H2       HT       0.417000       1.00800           0
     24544 TIP3     2436     TIP3     OH2      OT      -0.834000       15.9994           0
     24545 TIP3     2436     TIP3     H1       HT       0.417000       1.00800           0
     24546 TIP3     2436     TIP3     H2       HT       0.417000       1.00800           0
     24547 TIP3     2437     TIP3     OH2      OT      -0.834000       15.9994           0
     24548 TIP3     2437     TIP3     H1       HT       0.417000       1.00800           0
     24549 TIP3     2437     TIP3     H2       HT       0.417000       1.00800           0
     24550 TIP3     2438     TIP3     OH2      OT      -0.834000       15.9994           0
     24551 TIP3     2438     TIP3     H1       HT       0.417000       1.00800           0
     24552 TIP3     2438     TIP3     H2       HT       0.417000       1.00800           0
     24553 TIP3     2439     TIP3     OH2      OT      -0.834000       15.9994           0
     24554 TIP3     2439     TIP3     H1       HT       0.417000       1.00800           0
     24555 TIP3     2439     TIP3     H2       HT       0.417000       1.00800           0
     24556 TIP3     2440     TIP3     OH2      OT      -0.834000       15.9994           0
     24557 TIP3     2440     TIP3     H1       HT       0.417000       1.00800           0
     24558 TIP3     2440     TIP3     H2       HT       0.417000       1.00800           0
     24559 TIP3     2441     TIP3     OH2      OT      -0.834000       15.9994           0
     24560 TIP3     2441     TIP3     H1       HT       0.417000       1.00800           0
     24561 TIP3     2441     TIP3     H2       HT       0.417000       1.00800           0
     24562 TIP3     2442     TIP3     OH2      OT      -0.834000       15.9994           0
     24563 TIP3     2442     TIP3     H1       HT       0.417000       1.00800           0
     24564 TIP3     2442     TIP3     H2       HT       0.417000       1.00800           0
     24565 TIP3     2443     TIP3     OH2      OT      -0.834000       15.9994           0
     24566 TIP3     2443     TIP3     H1       HT       0.417000       1.00800           0
     24567 TIP3     2443     TIP3     H2       HT       0.417000       1.00800           0
     24568 TIP3     2444     TIP3     OH2      OT      -0.834000       15.9994           0
     24569 TIP3     2444     TIP3     H1       HT       0.417000       1.00800           0
     24570 TIP3     2444     TIP3     H2       HT       0.417000       1.00800           0
     24571 TIP3     2445     TIP3     OH2      OT      -0.834000       15.9994           0
     24572 TIP3     2445     TIP3     H1       HT       0.417000       1.00800           0
     24573 TIP3     2445     TIP3     H2       HT       0.417000       1.00800           0
     24574 TIP3     2446     TIP3     OH2      OT      -0.834000       15.9994           0
     24575 TIP3     2446     TIP3     H1       HT       0.417000       1.00800           0
     24576 TIP3     2446     TIP3     H2       HT       0.417000       1.00800           0
     24577 TIP3     2447     TIP3     OH2      OT      -0.834000       15.9994           0
     24578 TIP3     2447     TIP3     H1       HT       0.417000       1.00800           0
     24579 TIP3     2447     TIP3     H2       HT       0.417000       1.00800           0
     24580 TIP3     2448     TIP3     OH2      OT      -0.834000       15.9994           0
     24581 TIP3     2448     TIP3     H1       HT       0.417000       1.00800           0
     24582 TIP3     2448     TIP3     H2       HT       0.417000       1.00800           0
     24583 TIP3     2449     TIP3     OH2      OT      -0.834000       15.9994           0
     24584 TIP3     2449     TIP3     H1       HT       0.417000       1.00800           0
     24585 TIP3     2449     TIP3     H2       HT       0.417000       1.00800           0
     24586 TIP3     2450     TIP3     OH2      OT      -0.834000       15.9994           0
     24587 TIP3     2450     TIP3     H1       HT       0.417000       1.00800           0
     24588 TIP3     2450     TIP3     H2       HT       0.417000       1.00800           0
     24589 TIP3     2451     TIP3     OH2      OT      -0.834000       15.9994           0
     24590 TIP3     2451     TIP3     H1       HT       0.417000       1.00800           0
     24591 TIP3     2451     TIP3     H2       HT       0.417000       1.00800           0
     24592 TIP3     2452     TIP3     OH2      OT      -0.834000       15.9994           0
     24593 TIP3     2452     TIP3     H1       HT       0.417000       1.00800           0
     24594 TIP3     2452     TIP3     H2       HT       0.417000       1.00800           0
     24595 TIP3     2453     TIP3     OH2      OT      -0.834000       15.9994           0
     24596 TIP3     2453     TIP3     H1       HT       0.417000       1.00800           0
     24597 TIP3     2453     TIP3     H2       HT       0.417000       1.00800           0
     24598 TIP3     2454     TIP3     OH2      OT      -0.834000       15.9994           0
     24599 TIP3     2454     TIP3     H1       HT       0.417000       1.00800           0
     24600 TIP3     2454     TIP3     H2       HT       0.417000       1.00800           0
     24601 TIP3     2455     TIP3     OH2      OT      -0.834000       15.9994           0
     24602 TIP3     2455     TIP3     H1       HT       0.417000       1.00800           0
     24603 TIP3     2455     TIP3     H2       HT       0.417000       1.00800           0
     24604 TIP3     2456     TIP3     OH2      OT      -0.834000       15.9994           0
     24605 TIP3     2456     TIP3     H1       HT       0.417000       1.00800           0
     24606 TIP3     2456     TIP3     H2       HT       0.417000       1.00800           0
     24607 TIP3     2457     TIP3     OH2      OT      -0.834000       15.9994           0
     24608 TIP3     2457     TIP3     H1       HT       0.417000       1.00800           0
     24609 TIP3     2457     TIP3     H2       HT       0.417000       1.00800           0
     24610 TIP3     2458     TIP3     OH2      OT      -0.834000       15.9994           0
     24611 TIP3     2458     TIP3     H1       HT       0.417000       1.00800           0
     24612 TIP3     2458     TIP3     H2       HT       0.417000       1.00800           0
     24613 TIP3     2459     TIP3     OH2      OT      -0.834000       15.9994           0
     24614 TIP3     2459     TIP3     H1       HT       0.417000       1.00800           0
     24615 TIP3     2459     TIP3     H2       HT       0.417000       1.00800           0
     24616 TIP3     2460     TIP3     OH2      OT      -0.834000       15.9994           0
     24617 TIP3     2460     TIP3     H1       HT       0.417000       1.00800           0
     24618 TIP3     2460     TIP3     H2       HT       0.417000       1.00800           0
     24619 TIP3     2461     TIP3     OH2      OT      -0.834000       15.9994           0
     24620 TIP3     2461     TIP3     H1       HT       0.417000       1.00800           0
     24621 TIP3     2461     TIP3     H2       HT       0.417000       1.00800           0
     24622 TIP3     2462     TIP3     OH2      OT      -0.834000       15.9994           0
     24623 TIP3     2462     TIP3     H1       HT       0.417000       1.00800           0
     24624 TIP3     2462     TIP3     H2       HT       0.417000       1.00800           0
     24625 TIP3     2463     TIP3     OH2      OT      -0.834000       15.9994           0
     24626 TIP3     2463     TIP3     H1       HT       0.417000       1.00800           0
     24627 TIP3     2463     TIP3     H2       HT       0.417000       1.00800           0
     24628 TIP3     2464     TIP3     OH2      OT      -0.834000       15.9994           0
     24629 TIP3     2464     TIP3     H1       HT       0.417000       1.00800           0
     24630 TIP3     2464     TIP3     H2       HT       0.417000       1.00800           0
     24631 TIP3     2465     TIP3     OH2      OT      -0.834000       15.9994           0
     24632 TIP3     2465     TIP3     H1       HT       0.417000       1.00800           0
     24633 TIP3     2465     TIP3     H2       HT       0.417000       1.00800           0
     24634 TIP3     2466     TIP3     OH2      OT      -0.834000       15.9994           0
     24635 TIP3     2466     TIP3     H1       HT       0.417000       1.00800           0
     24636 TIP3     2466     TIP3     H2       HT       0.417000       1.00800           0
     24637 TIP3     2467     TIP3     OH2      OT      -0.834000       15.9994           0
     24638 TIP3     2467     TIP3     H1       HT       0.417000       1.00800           0
     24639 TIP3     2467     TIP3     H2       HT       0.417000       1.00800           0
     24640 TIP3     2468     TIP3     OH2      OT      -0.834000       15.9994           0
     24641 TIP3     2468     TIP3     H1       HT       0.417000       1.00800           0
     24642 TIP3     2468     TIP3     H2       HT       0.417000       1.00800           0
     24643 TIP3     2469     TIP3     OH2      OT      -0.834000       15.9994           0
     24644 TIP3     2469     TIP3     H1       HT       0.417000       1.00800           0
     24645 TIP3     2469     TIP3     H2       HT       0.417000       1.00800           0
     24646 TIP3     2470     TIP3     OH2      OT      -0.834000       15.9994           0
     24647 TIP3     2470     TIP3     H1       HT       0.417000       1.00800           0
     24648 TIP3     2470     TIP3     H2       HT       0.417000       1.00800           0
     24649 TIP3     2471     TIP3     OH2      OT      -0.834000       15.9994           0
     24650 TIP3     2471     TIP3     H1       HT       0.417000       1.00800           0
     24651 TIP3     2471     TIP3     H2       HT       0.417000       1.00800           0
     24652 TIP3     2472     TIP3     OH2      OT      -0.834000       15.9994           0
     24653 TIP3     2472     TIP3     H1       HT       0.417000       1.00800           0
     24654 TIP3     2472     TIP3     H2       HT       0.417000       1.00800           0
     24655 TIP3     2473     TIP3     OH2      OT      -0.834000       15.9994           0
     24656 TIP3     2473     TIP3     H1       HT       0.417000       1.00800           0
     24657 TIP3     2473     TIP3     H2       HT       0.417000       1.00800           0
     24658 TIP3     2474     TIP3     OH2      OT      -0.834000       15.9994           0
     24659 TIP3     2474     TIP3     H1       HT       0.417000       1.00800           0
     24660 TIP3     2474     TIP3     H2       HT       0.417000       1.00800           0
     24661 TIP3     2475     TIP3     OH2      OT      -0.834000       15.9994           0
     24662 TIP3     2475     TIP3     H1       HT       0.417000       1.00800           0
     24663 TIP3     2475     TIP3     H2       HT       0.417000       1.00800           0
     24664 TIP3     2476     TIP3     OH2      OT      -0.834000       15.9994           0
     24665 TIP3     2476     TIP3     H1       HT       0.417000       1.00800           0
     24666 TIP3     2476     TIP3     H2       HT       0.417000       1.00800           0
     24667 TIP3     2477     TIP3     OH2      OT      -0.834000       15.9994           0
     24668 TIP3     2477     TIP3     H1       HT       0.417000       1.00800           0
     24669 TIP3     2477     TIP3     H2       HT       0.417000       1.00800           0
     24670 TIP3     2478     TIP3     OH2      OT      -0.834000       15.9994           0
     24671 TIP3     2478     TIP3     H1       HT       0.417000       1.00800           0
     24672 TIP3     2478     TIP3     H2       HT       0.417000       1.00800           0
     24673 TIP3     2479     TIP3     OH2      OT      -0.834000       15.9994           0
     24674 TIP3     2479     TIP3     H1       HT       0.417000       1.00800           0
     24675 TIP3     2479     TIP3     H2       HT       0.417000       1.00800           0
     24676 TIP3     2480     TIP3     OH2      OT      -0.834000       15.9994           0
     24677 TIP3     2480     TIP3     H1       HT       0.417000       1.00800           0
     24678 TIP3     2480     TIP3     H2       HT       0.417000       1.00800           0
     24679 TIP3     2481     TIP3     OH2      OT      -0.834000       15.9994           0
     24680 TIP3     2481     TIP3     H1       HT       0.417000       1.00800           0
     24681 TIP3     2481     TIP3     H2       HT       0.417000       1.00800           0
     24682 TIP3     2482     TIP3     OH2      OT      -0.834000       15.9994           0
     24683 TIP3     2482     TIP3     H1       HT       0.417000       1.00800           0
     24684 TIP3     2482     TIP3     H2       HT       0.417000       1.00800           0
     24685 TIP3     2483     TIP3     OH2      OT      -0.834000       15.9994           0
     24686 TIP3     2483     TIP3     H1       HT       0.417000       1.00800           0
     24687 TIP3     2483     TIP3     H2       HT       0.417000       1.00800           0
     24688 TIP3     2484     TIP3     OH2      OT      -0.834000       15.9994           0
     24689 TIP3     2484     TIP3     H1       HT       0.417000       1.00800           0
     24690 TIP3     2484     TIP3     H2       HT       0.417000       1.00800           0
     24691 TIP3     2485     TIP3     OH2      OT      -0.834000       15.9994           0
     24692 TIP3     2485     TIP3     H1       HT       0.417000       1.00800           0
     24693 TIP3     2485     TIP3     H2       HT       0.417000       1.00800           0
     24694 TIP3     2486     TIP3     OH2      OT      -0.834000       15.9994           0
     24695 TIP3     2486     TIP3     H1       HT       0.417000       1.00800           0
     24696 TIP3     2486     TIP3     H2       HT       0.417000       1.00800           0
     24697 TIP3     2487     TIP3     OH2      OT      -0.834000       15.9994           0
     24698 TIP3     2487     TIP3     H1       HT       0.417000       1.00800           0
     24699 TIP3     2487     TIP3     H2       HT       0.417000       1.00800           0
     24700 TIP3     2488     TIP3     OH2      OT      -0.834000       15.9994           0
     24701 TIP3     2488     TIP3     H1       HT       0.417000       1.00800           0
     24702 TIP3     2488     TIP3     H2       HT       0.417000       1.00800           0
     24703 TIP3     2489     TIP3     OH2      OT      -0.834000       15.9994           0
     24704 TIP3     2489     TIP3     H1       HT       0.417000       1.00800           0
     24705 TIP3     2489     TIP3     H2       HT       0.417000       1.00800           0
     24706 TIP3     2490     TIP3     OH2      OT      -0.834000       15.9994           0
     24707 TIP3     2490     TIP3     H1       HT       0.417000       1.00800           0
     24708 TIP3     2490     TIP3     H2       HT       0.417000       1.00800           0
     24709 TIP3     2491     TIP3     OH2      OT      -0.834000       15.9994           0
     24710 TIP3     2491     TIP3     H1       HT       0.417000       1.00800           0
     24711 TIP3     2491     TIP3     H2       HT       0.417000       1.00800           0
     24712 TIP3     2492     TIP3     OH2      OT      -0.834000       15.9994           0
     24713 TIP3     2492     TIP3     H1       HT       0.417000       1.00800           0
     24714 TIP3     2492     TIP3     H2       HT       0.417000       1.00800           0
     24715 TIP3     2493     TIP3     OH2      OT      -0.834000       15.9994           0
     24716 TIP3     2493     TIP3     H1       HT       0.417000       1.00800           0
     24717 TIP3     2493     TIP3     H2       HT       0.417000       1.00800           0
     24718 TIP3     2494     TIP3     OH2      OT      -0.834000       15.9994           0
     24719 TIP3     2494     TIP3     H1       HT       0.417000       1.00800           0
     24720 TIP3     2494     TIP3     H2       HT       0.417000       1.00800           0
     24721 TIP3     2495     TIP3     OH2      OT      -0.834000       15.9994           0
     24722 TIP3     2495     TIP3     H1       HT       0.417000       1.00800           0
     24723 TIP3     2495     TIP3     H2       HT       0.417000       1.00800           0
     24724 TIP3     2496     TIP3     OH2      OT      -0.834000       15.9994           0
     24725 TIP3     2496     TIP3     H1       HT       0.417000       1.00800           0
     24726 TIP3     2496     TIP3     H2       HT       0.417000       1.00800           0
     24727 TIP3     2497     TIP3     OH2      OT      -0.834000       15.9994           0
     24728 TIP3     2497     TIP3     H1       HT       0.417000       1.00800           0
     24729 TIP3     2497     TIP3     H2       HT       0.417000       1.00800           0
     24730 TIP3     2498     TIP3     OH2      OT      -0.834000       15.9994           0
     24731 TIP3     2498     TIP3     H1       HT       0.417000       1.00800           0
     24732 TIP3     2498     TIP3     H2       HT       0.417000       1.00800           0
     24733 TIP3     2499     TIP3     OH2      OT      -0.834000       15.9994           0
     24734 TIP3     2499     TIP3     H1       HT       0.417000       1.00800           0
     24735 TIP3     2499     TIP3     H2       HT       0.417000       1.00800           0
     24736 TIP3     2500     TIP3     OH2      OT      -0.834000       15.9994           0
     24737 TIP3     2500     TIP3     H1       HT       0.417000       1.00800           0
     24738 TIP3     2500     TIP3     H2       HT       0.417000       1.00800           0
     24739 TIP3     2501     TIP3     OH2      OT      -0.834000       15.9994           0
     24740 TIP3     2501     TIP3     H1       HT       0.417000       1.00800           0
     24741 TIP3     2501     TIP3     H2       HT       0.417000       1.00800           0
     24742 TIP3     2502     TIP3     OH2      OT      -0.834000       15.9994           0
     24743 TIP3     2502     TIP3     H1       HT       0.417000       1.00800           0
     24744 TIP3     2502     TIP3     H2       HT       0.417000       1.00800           0
     24745 TIP3     2503     TIP3     OH2      OT      -0.834000       15.9994           0
     24746 TIP3     2503     TIP3     H1       HT       0.417000       1.00800           0
     24747 TIP3     2503     TIP3     H2       HT       0.417000       1.00800           0
     24748 TIP3     2504     TIP3     OH2      OT      -0.834000       15.9994           0
     24749 TIP3     2504     TIP3     H1       HT       0.417000       1.00800           0
     24750 TIP3     2504     TIP3     H2       HT       0.417000       1.00800           0
     24751 TIP3     2505     TIP3     OH2      OT      -0.834000       15.9994           0
     24752 TIP3     2505     TIP3     H1       HT       0.417000       1.00800           0
     24753 TIP3     2505     TIP3     H2       HT       0.417000       1.00800           0
     24754 TIP3     2506     TIP3     OH2      OT      -0.834000       15.9994           0
     24755 TIP3     2506     TIP3     H1       HT       0.417000       1.00800           0
     24756 TIP3     2506     TIP3     H2       HT       0.417000       1.00800           0
     24757 TIP3     2507     TIP3     OH2      OT      -0.834000       15.9994           0
     24758 TIP3     2507     TIP3     H1       HT       0.417000       1.00800           0
     24759 TIP3     2507     TIP3     H2       HT       0.417000       1.00800           0
     24760 TIP3     2508     TIP3     OH2      OT      -0.834000       15.9994           0
     24761 TIP3     2508     TIP3     H1       HT       0.417000       1.00800           0
     24762 TIP3     2508     TIP3     H2       HT       0.417000       1.00800           0
     24763 TIP3     2509     TIP3     OH2      OT      -0.834000       15.9994           0
     24764 TIP3     2509     TIP3     H1       HT       0.417000       1.00800           0
     24765 TIP3     2509     TIP3     H2       HT       0.417000       1.00800           0
     24766 TIP3     2510     TIP3     OH2      OT      -0.834000       15.9994           0
     24767 TIP3     2510     TIP3     H1       HT       0.417000       1.00800           0
     24768 TIP3     2510     TIP3     H2       HT       0.417000       1.00800           0
     24769 TIP3     2511     TIP3     OH2      OT      -0.834000       15.9994           0
     24770 TIP3     2511     TIP3     H1       HT       0.417000       1.00800           0
     24771 TIP3     2511     TIP3     H2       HT       0.417000       1.00800           0
     24772 TIP3     2512     TIP3     OH2      OT      -0.834000       15.9994           0
     24773 TIP3     2512     TIP3     H1       HT       0.417000       1.00800           0
     24774 TIP3     2512     TIP3     H2       HT       0.417000       1.00800           0
     24775 TIP3     2513     TIP3     OH2      OT      -0.834000       15.9994           0
     24776 TIP3     2513     TIP3     H1       HT       0.417000       1.00800           0
     24777 TIP3     2513     TIP3     H2       HT       0.417000       1.00800           0
     24778 TIP3     2514     TIP3     OH2      OT      -0.834000       15.9994           0
     24779 TIP3     2514     TIP3     H1       HT       0.417000       1.00800           0
     24780 TIP3     2514     TIP3     H2       HT       0.417000       1.00800           0
     24781 TIP3     2515     TIP3     OH2      OT      -0.834000       15.9994           0
     24782 TIP3     2515     TIP3     H1       HT       0.417000       1.00800           0
     24783 TIP3     2515     TIP3     H2       HT       0.417000       1.00800           0
     24784 TIP3     2516     TIP3     OH2      OT      -0.834000       15.9994           0
     24785 TIP3     2516     TIP3     H1       HT       0.417000       1.00800           0
     24786 TIP3     2516     TIP3     H2       HT       0.417000       1.00800           0
     24787 TIP3     2517     TIP3     OH2      OT      -0.834000       15.9994           0
     24788 TIP3     2517     TIP3     H1       HT       0.417000       1.00800           0
     24789 TIP3     2517     TIP3     H2       HT       0.417000       1.00800           0
     24790 TIP3     2518     TIP3     OH2      OT      -0.834000       15.9994           0
     24791 TIP3     2518     TIP3     H1       HT       0.417000       1.00800           0
     24792 TIP3     2518     TIP3     H2       HT       0.417000       1.00800           0
     24793 TIP3     2519     TIP3     OH2      OT      -0.834000       15.9994           0
     24794 TIP3     2519     TIP3     H1       HT       0.417000       1.00800           0
     24795 TIP3     2519     TIP3     H2       HT       0.417000       1.00800           0
     24796 TIP3     2520     TIP3     OH2      OT      -0.834000       15.9994           0
     24797 TIP3     2520     TIP3     H1       HT       0.417000       1.00800           0
     24798 TIP3     2520     TIP3     H2       HT       0.417000       1.00800           0
     24799 TIP3     2521     TIP3     OH2      OT      -0.834000       15.9994           0
     24800 TIP3     2521     TIP3     H1       HT       0.417000       1.00800           0
     24801 TIP3     2521     TIP3     H2       HT       0.417000       1.00800           0
     24802 TIP3     2522     TIP3     OH2      OT      -0.834000       15.9994           0
     24803 TIP3     2522     TIP3     H1       HT       0.417000       1.00800           0
     24804 TIP3     2522     TIP3     H2       HT       0.417000       1.00800           0
     24805 TIP3     2523     TIP3     OH2      OT      -0.834000       15.9994           0
     24806 TIP3     2523     TIP3     H1       HT       0.417000       1.00800           0
     24807 TIP3     2523     TIP3     H2       HT       0.417000       1.00800           0
     24808 TIP3     2524     TIP3     OH2      OT      -0.834000       15.9994           0
     24809 TIP3     2524     TIP3     H1       HT       0.417000       1.00800           0
     24810 TIP3     2524     TIP3     H2       HT       0.417000       1.00800           0
     24811 TIP3     2525     TIP3     OH2      OT      -0.834000       15.9994           0
     24812 TIP3     2525     TIP3     H1       HT       0.417000       1.00800           0
     24813 TIP3     2525     TIP3     H2       HT       0.417000       1.00800           0
     24814 TIP3     2526     TIP3     OH2      OT      -0.834000       15.9994           0
     24815 TIP3     2526     TIP3     H1       HT       0.417000       1.00800           0
     24816 TIP3     2526     TIP3     H2       HT       0.417000       1.00800           0
     24817 TIP3     2527     TIP3     OH2      OT      -0.834000       15.9994           0
     24818 TIP3     2527     TIP3     H1       HT       0.417000       1.00800           0
     24819 TIP3     2527     TIP3     H2       HT       0.417000       1.00800           0
     24820 TIP3     2528     TIP3     OH2      OT      -0.834000       15.9994           0
     24821 TIP3     2528     TIP3     H1       HT       0.417000       1.00800           0
     24822 TIP3     2528     TIP3     H2       HT       0.417000       1.00800           0
     24823 TIP3     2529     TIP3     OH2      OT      -0.834000       15.9994           0
     24824 TIP3     2529     TIP3     H1       HT       0.417000       1.00800           0
     24825 TIP3     2529     TIP3     H2       HT       0.417000       1.00800           0
     24826 TIP3     2530     TIP3     OH2      OT      -0.834000       15.9994           0
     24827 TIP3     2530     TIP3     H1       HT       0.417000       1.00800           0
     24828 TIP3     2530     TIP3     H2       HT       0.417000       1.00800           0
     24829 TIP3     2531     TIP3     OH2      OT      -0.834000       15.9994           0
     24830 TIP3     2531     TIP3     H1       HT       0.417000       1.00800           0
     24831 TIP3     2531     TIP3     H2       HT       0.417000       1.00800           0
     24832 TIP3     2532     TIP3     OH2      OT      -0.834000       15.9994           0
     24833 TIP3     2532     TIP3     H1       HT       0.417000       1.00800           0
     24834 TIP3     2532     TIP3     H2       HT       0.417000       1.00800           0
     24835 TIP3     2533     TIP3     OH2      OT      -0.834000       15.9994           0
     24836 TIP3     2533     TIP3     H1       HT       0.417000       1.00800           0
     24837 TIP3     2533     TIP3     H2       HT       0.417000       1.00800           0
     24838 TIP3     2534     TIP3     OH2      OT      -0.834000       15.9994           0
     24839 TIP3     2534     TIP3     H1       HT       0.417000       1.00800           0
     24840 TIP3     2534     TIP3     H2       HT       0.417000       1.00800           0
     24841 TIP3     2535     TIP3     OH2      OT      -0.834000       15.9994           0
     24842 TIP3     2535     TIP3     H1       HT       0.417000       1.00800           0
     24843 TIP3     2535     TIP3     H2       HT       0.417000       1.00800           0
     24844 TIP3     2536     TIP3     OH2      OT      -0.834000       15.9994           0
     24845 TIP3     2536     TIP3     H1       HT       0.417000       1.00800           0
     24846 TIP3     2536     TIP3     H2       HT       0.417000       1.00800           0
     24847 TIP3     2537     TIP3     OH2      OT      -0.834000       15.9994           0
     24848 TIP3     2537     TIP3     H1       HT       0.417000       1.00800           0
     24849 TIP3     2537     TIP3     H2       HT       0.417000       1.00800           0
     24850 TIP3     2538     TIP3     OH2      OT      -0.834000       15.9994           0
     24851 TIP3     2538     TIP3     H1       HT       0.417000       1.00800           0
     24852 TIP3     2538     TIP3     H2       HT       0.417000       1.00800           0
     24853 TIP3     2539     TIP3     OH2      OT      -0.834000       15.9994           0
     24854 TIP3     2539     TIP3     H1       HT       0.417000       1.00800           0
     24855 TIP3     2539     TIP3     H2       HT       0.417000       1.00800           0
     24856 TIP3     2540     TIP3     OH2      OT      -0.834000       15.9994           0
     24857 TIP3     2540     TIP3     H1       HT       0.417000       1.00800           0
     24858 TIP3     2540     TIP3     H2       HT       0.417000       1.00800           0
     24859 TIP3     2541     TIP3     OH2      OT      -0.834000       15.9994           0
     24860 TIP3     2541     TIP3     H1       HT       0.417000       1.00800           0
     24861 TIP3     2541     TIP3     H2       HT       0.417000       1.00800           0
     24862 TIP3     2542     TIP3     OH2      OT      -0.834000       15.9994           0
     24863 TIP3     2542     TIP3     H1       HT       0.417000       1.00800           0
     24864 TIP3     2542     TIP3     H2       HT       0.417000       1.00800           0
     24865 TIP3     2543     TIP3     OH2      OT      -0.834000       15.9994           0
     24866 TIP3     2543     TIP3     H1       HT       0.417000       1.00800           0
     24867 TIP3     2543     TIP3     H2       HT       0.417000       1.00800           0
     24868 TIP3     2544     TIP3     OH2      OT      -0.834000       15.9994           0
     24869 TIP3     2544     TIP3     H1       HT       0.417000       1.00800           0
     24870 TIP3     2544     TIP3     H2       HT       0.417000       1.00800           0
     24871 TIP3     2545     TIP3     OH2      OT      -0.834000       15.9994           0
     24872 TIP3     2545     TIP3     H1       HT       0.417000       1.00800           0
     24873 TIP3     2545     TIP3     H2       HT       0.417000       1.00800           0
     24874 TIP3     2546     TIP3     OH2      OT      -0.834000       15.9994           0
     24875 TIP3     2546     TIP3     H1       HT       0.417000       1.00800           0
     24876 TIP3     2546     TIP3     H2       HT       0.417000       1.00800           0
     24877 TIP3     2547     TIP3     OH2      OT      -0.834000       15.9994           0
     24878 TIP3     2547     TIP3     H1       HT       0.417000       1.00800           0
     24879 TIP3     2547     TIP3     H2       HT       0.417000       1.00800           0
     24880 TIP3     2548     TIP3     OH2      OT      -0.834000       15.9994           0
     24881 TIP3     2548     TIP3     H1       HT       0.417000       1.00800           0
     24882 TIP3     2548     TIP3     H2       HT       0.417000       1.00800           0
     24883 TIP3     2549     TIP3     OH2      OT      -0.834000       15.9994           0
     24884 TIP3     2549     TIP3     H1       HT       0.417000       1.00800           0
     24885 TIP3     2549     TIP3     H2       HT       0.417000       1.00800           0
     24886 TIP3     2550     TIP3     OH2      OT      -0.834000       15.9994           0
     24887 TIP3     2550     TIP3     H1       HT       0.417000       1.00800           0
     24888 TIP3     2550     TIP3     H2       HT       0.417000       1.00800           0
     24889 TIP3     2551     TIP3     OH2      OT      -0.834000       15.9994           0
     24890 TIP3     2551     TIP3     H1       HT       0.417000       1.00800           0
     24891 TIP3     2551     TIP3     H2       HT       0.417000       1.00800           0
     24892 TIP3     2552     TIP3     OH2      OT      -0.834000       15.9994           0
     24893 TIP3     2552     TIP3     H1       HT       0.417000       1.00800           0
     24894 TIP3     2552     TIP3     H2       HT       0.417000       1.00800           0
     24895 TIP3     2553     TIP3     OH2      OT      -0.834000       15.9994           0
     24896 TIP3     2553     TIP3     H1       HT       0.417000       1.00800           0
     24897 TIP3     2553     TIP3     H2       HT       0.417000       1.00800           0
     24898 TIP3     2554     TIP3     OH2      OT      -0.834000       15.9994           0
     24899 TIP3     2554     TIP3     H1       HT       0.417000       1.00800           0
     24900 TIP3     2554     TIP3     H2       HT       0.417000       1.00800           0
     24901 TIP3     2555     TIP3     OH2      OT      -0.834000       15.9994           0
     24902 TIP3     2555     TIP3     H1       HT       0.417000       1.00800           0
     24903 TIP3     2555     TIP3     H2       HT       0.417000       1.00800           0
     24904 TIP3     2556     TIP3     OH2      OT      -0.834000       15.9994           0
     24905 TIP3     2556     TIP3     H1       HT       0.417000       1.00800           0
     24906 TIP3     2556     TIP3     H2       HT       0.417000       1.00800           0
     24907 TIP3     2557     TIP3     OH2      OT      -0.834000       15.9994           0
     24908 TIP3     2557     TIP3     H1       HT       0.417000       1.00800           0
     24909 TIP3     2557     TIP3     H2       HT       0.417000       1.00800           0
     24910 TIP3     2558     TIP3     OH2      OT      -0.834000       15.9994           0
     24911 TIP3     2558     TIP3     H1       HT       0.417000       1.00800           0
     24912 TIP3     2558     TIP3     H2       HT       0.417000       1.00800           0
     24913 TIP3     2559     TIP3     OH2      OT      -0.834000       15.9994           0
     24914 TIP3     2559     TIP3     H1       HT       0.417000       1.00800           0
     24915 TIP3     2559     TIP3     H2       HT       0.417000       1.00800           0
     24916 TIP3     2560     TIP3     OH2      OT      -0.834000       15.9994           0
     24917 TIP3     2560     TIP3     H1       HT       0.417000       1.00800           0
     24918 TIP3     2560     TIP3     H2       HT       0.417000       1.00800           0
     24919 TIP3     2561     TIP3     OH2      OT      -0.834000       15.9994           0
     24920 TIP3     2561     TIP3     H1       HT       0.417000       1.00800           0
     24921 TIP3     2561     TIP3     H2       HT       0.417000       1.00800           0
     24922 TIP3     2562     TIP3     OH2      OT      -0.834000       15.9994           0
     24923 TIP3     2562     TIP3     H1       HT       0.417000       1.00800           0
     24924 TIP3     2562     TIP3     H2       HT       0.417000       1.00800           0
     24925 TIP3     2563     TIP3     OH2      OT      -0.834000       15.9994           0
     24926 TIP3     2563     TIP3     H1       HT       0.417000       1.00800           0
     24927 TIP3     2563     TIP3     H2       HT       0.417000       1.00800           0
     24928 TIP3     2564     TIP3     OH2      OT      -0.834000       15.9994           0
     24929 TIP3     2564     TIP3     H1       HT       0.417000       1.00800           0
     24930 TIP3     2564     TIP3     H2       HT       0.417000       1.00800           0
     24931 TIP3     2565     TIP3     OH2      OT      -0.834000       15.9994           0
     24932 TIP3     2565     TIP3     H1       HT       0.417000       1.00800           0
     24933 TIP3     2565     TIP3     H2       HT       0.417000       1.00800           0
     24934 TIP3     2566     TIP3     OH2      OT      -0.834000       15.9994           0
     24935 TIP3     2566     TIP3     H1       HT       0.417000       1.00800           0
     24936 TIP3     2566     TIP3     H2       HT       0.417000       1.00800           0
     24937 TIP3     2567     TIP3     OH2      OT      -0.834000       15.9994           0
     24938 TIP3     2567     TIP3     H1       HT       0.417000       1.00800           0
     24939 TIP3     2567     TIP3     H2       HT       0.417000       1.00800           0
     24940 TIP3     2568     TIP3     OH2      OT      -0.834000       15.9994           0
     24941 TIP3     2568     TIP3     H1       HT       0.417000       1.00800           0
     24942 TIP3     2568     TIP3     H2       HT       0.417000       1.00800           0
     24943 TIP3     2569     TIP3     OH2      OT      -0.834000       15.9994           0
     24944 TIP3     2569     TIP3     H1       HT       0.417000       1.00800           0
     24945 TIP3     2569     TIP3     H2       HT       0.417000       1.00800           0
     24946 TIP3     2570     TIP3     OH2      OT      -0.834000       15.9994           0
     24947 TIP3     2570     TIP3     H1       HT       0.417000       1.00800           0
     24948 TIP3     2570     TIP3     H2       HT       0.417000       1.00800           0
     24949 TIP3     2571     TIP3     OH2      OT      -0.834000       15.9994           0
     24950 TIP3     2571     TIP3     H1       HT       0.417000       1.00800           0
     24951 TIP3     2571     TIP3     H2       HT       0.417000       1.00800           0
     24952 TIP3     2572     TIP3     OH2      OT      -0.834000       15.9994           0
     24953 TIP3     2572     TIP3     H1       HT       0.417000       1.00800           0
     24954 TIP3     2572     TIP3     H2       HT       0.417000       1.00800           0
     24955 TIP3     2573     TIP3     OH2      OT      -0.834000       15.9994           0
     24956 TIP3     2573     TIP3     H1       HT       0.417000       1.00800           0
     24957 TIP3     2573     TIP3     H2       HT       0.417000       1.00800           0
     24958 TIP3     2574     TIP3     OH2      OT      -0.834000       15.9994           0
     24959 TIP3     2574     TIP3     H1       HT       0.417000       1.00800           0
     24960 TIP3     2574     TIP3     H2       HT       0.417000       1.00800           0
     24961 TIP3     2575     TIP3     OH2      OT      -0.834000       15.9994           0
     24962 TIP3     2575     TIP3     H1       HT       0.417000       1.00800           0
     24963 TIP3     2575     TIP3     H2       HT       0.417000       1.00800           0
     24964 TIP3     2576     TIP3     OH2      OT      -0.834000       15.9994           0
     24965 TIP3     2576     TIP3     H1       HT       0.417000       1.00800           0
     24966 TIP3     2576     TIP3     H2       HT       0.417000       1.00800           0
     24967 TIP3     2577     TIP3     OH2      OT      -0.834000       15.9994           0
     24968 TIP3     2577     TIP3     H1       HT       0.417000       1.00800           0
     24969 TIP3     2577     TIP3     H2       HT       0.417000       1.00800           0
     24970 TIP3     2578     TIP3     OH2      OT      -0.834000       15.9994           0
     24971 TIP3     2578     TIP3     H1       HT       0.417000       1.00800           0
     24972 TIP3     2578     TIP3     H2       HT       0.417000       1.00800           0
     24973 TIP3     2579     TIP3     OH2      OT      -0.834000       15.9994           0
     24974 TIP3     2579     TIP3     H1       HT       0.417000       1.00800           0
     24975 TIP3     2579     TIP3     H2       HT       0.417000       1.00800           0
     24976 TIP3     2580     TIP3     OH2      OT      -0.834000       15.9994           0
     24977 TIP3     2580     TIP3     H1       HT       0.417000       1.00800           0
     24978 TIP3     2580     TIP3     H2       HT       0.417000       1.00800           0
     24979 TIP3     2581     TIP3     OH2      OT      -0.834000       15.9994           0
     24980 TIP3     2581     TIP3     H1       HT       0.417000       1.00800           0
     24981 TIP3     2581     TIP3     H2       HT       0.417000       1.00800           0
     24982 TIP3     2582     TIP3     OH2      OT      -0.834000       15.9994           0
     24983 TIP3     2582     TIP3     H1       HT       0.417000       1.00800           0
     24984 TIP3     2582     TIP3     H2       HT       0.417000       1.00800           0
     24985 TIP3     2583     TIP3     OH2      OT      -0.834000       15.9994           0
     24986 TIP3     2583     TIP3     H1       HT       0.417000       1.00800           0
     24987 TIP3     2583     TIP3     H2       HT       0.417000       1.00800           0
     24988 TIP3     2584     TIP3     OH2      OT      -0.834000       15.9994           0
     24989 TIP3     2584     TIP3     H1       HT       0.417000       1.00800           0
     24990 TIP3     2584     TIP3     H2       HT       0.417000       1.00800           0
     24991 TIP3     2585     TIP3     OH2      OT      -0.834000       15.9994           0
     24992 TIP3     2585     TIP3     H1       HT       0.417000       1.00800           0
     24993 TIP3     2585     TIP3     H2       HT       0.417000       1.00800           0
     24994 TIP3     2586     TIP3     OH2      OT      -0.834000       15.9994           0
     24995 TIP3     2586     TIP3     H1       HT       0.417000       1.00800           0
     24996 TIP3     2586     TIP3     H2       HT       0.417000       1.00800           0
     24997 TIP3     2587     TIP3     OH2      OT      -0.834000       15.9994           0
     24998 TIP3     2587     TIP3     H1       HT       0.417000       1.00800           0
     24999 TIP3     2587     TIP3     H2       HT       0.417000       1.00800           0
     25000 TIP3     2588     TIP3     OH2      OT      -0.834000       15.9994           0
     25001 TIP3     2588     TIP3     H1       HT       0.417000       1.00800           0
     25002 TIP3     2588     TIP3     H2       HT       0.417000       1.00800           0
     25003 TIP3     2589     TIP3     OH2      OT      -0.834000       15.9994           0
     25004 TIP3     2589     TIP3     H1       HT       0.417000       1.00800           0
     25005 TIP3     2589     TIP3     H2       HT       0.417000       1.00800           0
     25006 TIP3     2590     TIP3     OH2      OT      -0.834000       15.9994           0
     25007 TIP3     2590     TIP3     H1       HT       0.417000       1.00800           0
     25008 TIP3     2590     TIP3     H2       HT       0.417000       1.00800           0
     25009 TIP3     2591     TIP3     OH2      OT      -0.834000       15.9994           0
     25010 TIP3     2591     TIP3     H1       HT       0.417000       1.00800           0
     25011 TIP3     2591     TIP3     H2       HT       0.417000       1.00800           0
     25012 TIP3     2592     TIP3     OH2      OT      -0.834000       15.9994           0
     25013 TIP3     2592     TIP3     H1       HT       0.417000       1.00800           0
     25014 TIP3     2592     TIP3     H2       HT       0.417000       1.00800           0
     25015 TIP3     2593     TIP3     OH2      OT      -0.834000       15.9994           0
     25016 TIP3     2593     TIP3     H1       HT       0.417000       1.00800           0
     25017 TIP3     2593     TIP3     H2       HT       0.417000       1.00800           0
     25018 TIP3     2594     TIP3     OH2      OT      -0.834000       15.9994           0
     25019 TIP3     2594     TIP3     H1       HT       0.417000       1.00800           0
     25020 TIP3     2594     TIP3     H2       HT       0.417000       1.00800           0
     25021 TIP3     2595     TIP3     OH2      OT      -0.834000       15.9994           0
     25022 TIP3     2595     TIP3     H1       HT       0.417000       1.00800           0
     25023 TIP3     2595     TIP3     H2       HT       0.417000       1.00800           0
     25024 TIP3     2596     TIP3     OH2      OT      -0.834000       15.9994           0
     25025 TIP3     2596     TIP3     H1       HT       0.417000       1.00800           0
     25026 TIP3     2596     TIP3     H2       HT       0.417000       1.00800           0
     25027 TIP3     2597     TIP3     OH2      OT      -0.834000       15.9994           0
     25028 TIP3     2597     TIP3     H1       HT       0.417000       1.00800           0
     25029 TIP3     2597     TIP3     H2       HT       0.417000       1.00800           0
     25030 TIP3     2598     TIP3     OH2      OT      -0.834000       15.9994           0
     25031 TIP3     2598     TIP3     H1       HT       0.417000       1.00800           0
     25032 TIP3     2598     TIP3     H2       HT       0.417000       1.00800           0
     25033 TIP3     2599     TIP3     OH2      OT      -0.834000       15.9994           0
     25034 TIP3     2599     TIP3     H1       HT       0.417000       1.00800           0
     25035 TIP3     2599     TIP3     H2       HT       0.417000       1.00800           0
     25036 TIP3     2600     TIP3     OH2      OT      -0.834000       15.9994           0
     25037 TIP3     2600     TIP3     H1       HT       0.417000       1.00800           0
     25038 TIP3     2600     TIP3     H2       HT       0.417000       1.00800           0
     25039 TIP3     2601     TIP3     OH2      OT      -0.834000       15.9994           0
     25040 TIP3     2601     TIP3     H1       HT       0.417000       1.00800           0
     25041 TIP3     2601     TIP3     H2       HT       0.417000       1.00800           0
     25042 TIP3     2602     TIP3     OH2      OT      -0.834000       15.9994           0
     25043 TIP3     2602     TIP3     H1       HT       0.417000       1.00800           0
     25044 TIP3     2602     TIP3     H2       HT       0.417000       1.00800           0
     25045 TIP3     2603     TIP3     OH2      OT      -0.834000       15.9994           0
     25046 TIP3     2603     TIP3     H1       HT       0.417000       1.00800           0
     25047 TIP3     2603     TIP3     H2       HT       0.417000       1.00800           0
     25048 TIP3     2604     TIP3     OH2      OT      -0.834000       15.9994           0
     25049 TIP3     2604     TIP3     H1       HT       0.417000       1.00800           0
     25050 TIP3     2604     TIP3     H2       HT       0.417000       1.00800           0
     25051 TIP3     2605     TIP3     OH2      OT      -0.834000       15.9994           0
     25052 TIP3     2605     TIP3     H1       HT       0.417000       1.00800           0
     25053 TIP3     2605     TIP3     H2       HT       0.417000       1.00800           0
     25054 TIP3     2606     TIP3     OH2      OT      -0.834000       15.9994           0
     25055 TIP3     2606     TIP3     H1       HT       0.417000       1.00800           0
     25056 TIP3     2606     TIP3     H2       HT       0.417000       1.00800           0
     25057 TIP3     2607     TIP3     OH2      OT      -0.834000       15.9994           0
     25058 TIP3     2607     TIP3     H1       HT       0.417000       1.00800           0
     25059 TIP3     2607     TIP3     H2       HT       0.417000       1.00800           0
     25060 TIP3     2608     TIP3     OH2      OT      -0.834000       15.9994           0
     25061 TIP3     2608     TIP3     H1       HT       0.417000       1.00800           0
     25062 TIP3     2608     TIP3     H2       HT       0.417000       1.00800           0
     25063 TIP3     2609     TIP3     OH2      OT      -0.834000       15.9994           0
     25064 TIP3     2609     TIP3     H1       HT       0.417000       1.00800           0
     25065 TIP3     2609     TIP3     H2       HT       0.417000       1.00800           0
     25066 TIP3     2610     TIP3     OH2      OT      -0.834000       15.9994           0
     25067 TIP3     2610     TIP3     H1       HT       0.417000       1.00800           0
     25068 TIP3     2610     TIP3     H2       HT       0.417000       1.00800           0
     25069 TIP3     2611     TIP3     OH2      OT      -0.834000       15.9994           0
     25070 TIP3     2611     TIP3     H1       HT       0.417000       1.00800           0
     25071 TIP3     2611     TIP3     H2       HT       0.417000       1.00800           0
     25072 TIP3     2612     TIP3     OH2      OT      -0.834000       15.9994           0
     25073 TIP3     2612     TIP3     H1       HT       0.417000       1.00800           0
     25074 TIP3     2612     TIP3     H2       HT       0.417000       1.00800           0
     25075 TIP3     2613     TIP3     OH2      OT      -0.834000       15.9994           0
     25076 TIP3     2613     TIP3     H1       HT       0.417000       1.00800           0
     25077 TIP3     2613     TIP3     H2       HT       0.417000       1.00800           0
     25078 TIP3     2614     TIP3     OH2      OT      -0.834000       15.9994           0
     25079 TIP3     2614     TIP3     H1       HT       0.417000       1.00800           0
     25080 TIP3     2614     TIP3     H2       HT       0.417000       1.00800           0
     25081 TIP3     2615     TIP3     OH2      OT      -0.834000       15.9994           0
     25082 TIP3     2615     TIP3     H1       HT       0.417000       1.00800           0
     25083 TIP3     2615     TIP3     H2       HT       0.417000       1.00800           0
     25084 TIP3     2616     TIP3     OH2      OT      -0.834000       15.9994           0
     25085 TIP3     2616     TIP3     H1       HT       0.417000       1.00800           0
     25086 TIP3     2616     TIP3     H2       HT       0.417000       1.00800           0
     25087 TIP3     2617     TIP3     OH2      OT      -0.834000       15.9994           0
     25088 TIP3     2617     TIP3     H1       HT       0.417000       1.00800           0
     25089 TIP3     2617     TIP3     H2       HT       0.417000       1.00800           0
     25090 TIP3     2618     TIP3     OH2      OT      -0.834000       15.9994           0
     25091 TIP3     2618     TIP3     H1       HT       0.417000       1.00800           0
     25092 TIP3     2618     TIP3     H2       HT       0.417000       1.00800           0
     25093 TIP3     2619     TIP3     OH2      OT      -0.834000       15.9994           0
     25094 TIP3     2619     TIP3     H1       HT       0.417000       1.00800           0
     25095 TIP3     2619     TIP3     H2       HT       0.417000       1.00800           0
     25096 TIP3     2620     TIP3     OH2      OT      -0.834000       15.9994           0
     25097 TIP3     2620     TIP3     H1       HT       0.417000       1.00800           0
     25098 TIP3     2620     TIP3     H2       HT       0.417000       1.00800           0
     25099 TIP3     2621     TIP3     OH2      OT      -0.834000       15.9994           0
     25100 TIP3     2621     TIP3     H1       HT       0.417000       1.00800           0
     25101 TIP3     2621     TIP3     H2       HT       0.417000       1.00800           0
     25102 TIP3     2622     TIP3     OH2      OT      -0.834000       15.9994           0
     25103 TIP3     2622     TIP3     H1       HT       0.417000       1.00800           0
     25104 TIP3     2622     TIP3     H2       HT       0.417000       1.00800           0
     25105 TIP3     2623     TIP3     OH2      OT      -0.834000       15.9994           0
     25106 TIP3     2623     TIP3     H1       HT       0.417000       1.00800           0
     25107 TIP3     2623     TIP3     H2       HT       0.417000       1.00800           0
     25108 TIP3     2624     TIP3     OH2      OT      -0.834000       15.9994           0
     25109 TIP3     2624     TIP3     H1       HT       0.417000       1.00800           0
     25110 TIP3     2624     TIP3     H2       HT       0.417000       1.00800           0
     25111 TIP3     2625     TIP3     OH2      OT      -0.834000       15.9994           0
     25112 TIP3     2625     TIP3     H1       HT       0.417000       1.00800           0
     25113 TIP3     2625     TIP3     H2       HT       0.417000       1.00800           0
     25114 TIP3     2626     TIP3     OH2      OT      -0.834000       15.9994           0
     25115 TIP3     2626     TIP3     H1       HT       0.417000       1.00800           0
     25116 TIP3     2626     TIP3     H2       HT       0.417000       1.00800           0
     25117 TIP3     2627     TIP3     OH2      OT      -0.834000       15.9994           0
     25118 TIP3     2627     TIP3     H1       HT       0.417000       1.00800           0
     25119 TIP3     2627     TIP3     H2       HT       0.417000       1.00800           0
     25120 TIP3     2628     TIP3     OH2      OT      -0.834000       15.9994           0
     25121 TIP3     2628     TIP3     H1       HT       0.417000       1.00800           0
     25122 TIP3     2628     TIP3     H2       HT       0.417000       1.00800           0
     25123 TIP3     2629     TIP3     OH2      OT      -0.834000       15.9994           0
     25124 TIP3     2629     TIP3     H1       HT       0.417000       1.00800           0
     25125 TIP3     2629     TIP3     H2       HT       0.417000       1.00800           0
     25126 TIP3     2630     TIP3     OH2      OT      -0.834000       15.9994           0
     25127 TIP3     2630     TIP3     H1       HT       0.417000       1.00800           0
     25128 TIP3     2630     TIP3     H2       HT       0.417000       1.00800           0
     25129 TIP3     2631     TIP3     OH2      OT      -0.834000       15.9994           0
     25130 TIP3     2631     TIP3     H1       HT       0.417000       1.00800           0
     25131 TIP3     2631     TIP3     H2       HT       0.417000       1.00800           0
     25132 TIP3     2632     TIP3     OH2      OT      -0.834000       15.9994           0
     25133 TIP3     2632     TIP3     H1       HT       0.417000       1.00800           0
     25134 TIP3     2632     TIP3     H2       HT       0.417000       1.00800           0
     25135 TIP3     2633     TIP3     OH2      OT      -0.834000       15.9994           0
     25136 TIP3     2633     TIP3     H1       HT       0.417000       1.00800           0
     25137 TIP3     2633     TIP3     H2       HT       0.417000       1.00800           0
     25138 TIP3     2634     TIP3     OH2      OT      -0.834000       15.9994           0
     25139 TIP3     2634     TIP3     H1       HT       0.417000       1.00800           0
     25140 TIP3     2634     TIP3     H2       HT       0.417000       1.00800           0
     25141 TIP3     2635     TIP3     OH2      OT      -0.834000       15.9994           0
     25142 TIP3     2635     TIP3     H1       HT       0.417000       1.00800           0
     25143 TIP3     2635     TIP3     H2       HT       0.417000       1.00800           0
     25144 TIP3     2636     TIP3     OH2      OT      -0.834000       15.9994           0
     25145 TIP3     2636     TIP3     H1       HT       0.417000       1.00800           0
     25146 TIP3     2636     TIP3     H2       HT       0.417000       1.00800           0
     25147 TIP3     2637     TIP3     OH2      OT      -0.834000       15.9994           0
     25148 TIP3     2637     TIP3     H1       HT       0.417000       1.00800           0
     25149 TIP3     2637     TIP3     H2       HT       0.417000       1.00800           0
     25150 TIP3     2638     TIP3     OH2      OT      -0.834000       15.9994           0
     25151 TIP3     2638     TIP3     H1       HT       0.417000       1.00800           0
     25152 TIP3     2638     TIP3     H2       HT       0.417000       1.00800           0
     25153 TIP3     2639     TIP3     OH2      OT      -0.834000       15.9994           0
     25154 TIP3     2639     TIP3     H1       HT       0.417000       1.00800           0
     25155 TIP3     2639     TIP3     H2       HT       0.417000       1.00800           0
     25156 TIP3     2640     TIP3     OH2      OT      -0.834000       15.9994           0
     25157 TIP3     2640     TIP3     H1       HT       0.417000       1.00800           0
     25158 TIP3     2640     TIP3     H2       HT       0.417000       1.00800           0
     25159 TIP3     2641     TIP3     OH2      OT      -0.834000       15.9994           0
     25160 TIP3     2641     TIP3     H1       HT       0.417000       1.00800           0
     25161 TIP3     2641     TIP3     H2       HT       0.417000       1.00800           0
     25162 TIP3     2642     TIP3     OH2      OT      -0.834000       15.9994           0
     25163 TIP3     2642     TIP3     H1       HT       0.417000       1.00800           0
     25164 TIP3     2642     TIP3     H2       HT       0.417000       1.00800           0
     25165 TIP3     2643     TIP3     OH2      OT      -0.834000       15.9994           0
     25166 TIP3     2643     TIP3     H1       HT       0.417000       1.00800           0
     25167 TIP3     2643     TIP3     H2       HT       0.417000       1.00800           0
     25168 TIP3     2644     TIP3     OH2      OT      -0.834000       15.9994           0
     25169 TIP3     2644     TIP3     H1       HT       0.417000       1.00800           0
     25170 TIP3     2644     TIP3     H2       HT       0.417000       1.00800           0
     25171 TIP3     2645     TIP3     OH2      OT      -0.834000       15.9994           0
     25172 TIP3     2645     TIP3     H1       HT       0.417000       1.00800           0
     25173 TIP3     2645     TIP3     H2       HT       0.417000       1.00800           0
     25174 TIP3     2646     TIP3     OH2      OT      -0.834000       15.9994           0
     25175 TIP3     2646     TIP3     H1       HT       0.417000       1.00800           0
     25176 TIP3     2646     TIP3     H2       HT       0.417000       1.00800           0
     25177 TIP3     2647     TIP3     OH2      OT      -0.834000       15.9994           0
     25178 TIP3     2647     TIP3     H1       HT       0.417000       1.00800           0
     25179 TIP3     2647     TIP3     H2       HT       0.417000       1.00800           0
     25180 TIP3     2648     TIP3     OH2      OT      -0.834000       15.9994           0
     25181 TIP3     2648     TIP3     H1       HT       0.417000       1.00800           0
     25182 TIP3     2648     TIP3     H2       HT       0.417000       1.00800           0
     25183 TIP3     2649     TIP3     OH2      OT      -0.834000       15.9994           0
     25184 TIP3     2649     TIP3     H1       HT       0.417000       1.00800           0
     25185 TIP3     2649     TIP3     H2       HT       0.417000       1.00800           0
     25186 TIP3     2650     TIP3     OH2      OT      -0.834000       15.9994           0
     25187 TIP3     2650     TIP3     H1       HT       0.417000       1.00800           0
     25188 TIP3     2650     TIP3     H2       HT       0.417000       1.00800           0
     25189 TIP3     2651     TIP3     OH2      OT      -0.834000       15.9994           0
     25190 TIP3     2651     TIP3     H1       HT       0.417000       1.00800           0
     25191 TIP3     2651     TIP3     H2       HT       0.417000       1.00800           0
     25192 TIP3     2652     TIP3     OH2      OT      -0.834000       15.9994           0
     25193 TIP3     2652     TIP3     H1       HT       0.417000       1.00800           0
     25194 TIP3     2652     TIP3     H2       HT       0.417000       1.00800           0
     25195 TIP3     2653     TIP3     OH2      OT      -0.834000       15.9994           0
     25196 TIP3     2653     TIP3     H1       HT       0.417000       1.00800           0
     25197 TIP3     2653     TIP3     H2       HT       0.417000       1.00800           0
     25198 TIP3     2654     TIP3     OH2      OT      -0.834000       15.9994           0
     25199 TIP3     2654     TIP3     H1       HT       0.417000       1.00800           0
     25200 TIP3     2654     TIP3     H2       HT       0.417000       1.00800           0
     25201 TIP3     2655     TIP3     OH2      OT      -0.834000       15.9994           0
     25202 TIP3     2655     TIP3     H1       HT       0.417000       1.00800           0
     25203 TIP3     2655     TIP3     H2       HT       0.417000       1.00800           0
     25204 TIP3     2656     TIP3     OH2      OT      -0.834000       15.9994           0
     25205 TIP3     2656     TIP3     H1       HT       0.417000       1.00800           0
     25206 TIP3     2656     TIP3     H2       HT       0.417000       1.00800           0
     25207 TIP3     2657     TIP3     OH2      OT      -0.834000       15.9994           0
     25208 TIP3     2657     TIP3     H1       HT       0.417000       1.00800           0
     25209 TIP3     2657     TIP3     H2       HT       0.417000       1.00800           0
     25210 TIP3     2658     TIP3     OH2      OT      -0.834000       15.9994           0
     25211 TIP3     2658     TIP3     H1       HT       0.417000       1.00800           0
     25212 TIP3     2658     TIP3     H2       HT       0.417000       1.00800           0
     25213 TIP3     2659     TIP3     OH2      OT      -0.834000       15.9994           0
     25214 TIP3     2659     TIP3     H1       HT       0.417000       1.00800           0
     25215 TIP3     2659     TIP3     H2       HT       0.417000       1.00800           0
     25216 TIP3     2660     TIP3     OH2      OT      -0.834000       15.9994           0
     25217 TIP3     2660     TIP3     H1       HT       0.417000       1.00800           0
     25218 TIP3     2660     TIP3     H2       HT       0.417000       1.00800           0
     25219 TIP3     2661     TIP3     OH2      OT      -0.834000       15.9994           0
     25220 TIP3     2661     TIP3     H1       HT       0.417000       1.00800           0
     25221 TIP3     2661     TIP3     H2       HT       0.417000       1.00800           0
     25222 TIP3     2662     TIP3     OH2      OT      -0.834000       15.9994           0
     25223 TIP3     2662     TIP3     H1       HT       0.417000       1.00800           0
     25224 TIP3     2662     TIP3     H2       HT       0.417000       1.00800           0
     25225 TIP3     2663     TIP3     OH2      OT      -0.834000       15.9994           0
     25226 TIP3     2663     TIP3     H1       HT       0.417000       1.00800           0
     25227 TIP3     2663     TIP3     H2       HT       0.417000       1.00800           0
     25228 TIP3     2664     TIP3     OH2      OT      -0.834000       15.9994           0
     25229 TIP3     2664     TIP3     H1       HT       0.417000       1.00800           0
     25230 TIP3     2664     TIP3     H2       HT       0.417000       1.00800           0
     25231 TIP3     2665     TIP3     OH2      OT      -0.834000       15.9994           0
     25232 TIP3     2665     TIP3     H1       HT       0.417000       1.00800           0
     25233 TIP3     2665     TIP3     H2       HT       0.417000       1.00800           0
     25234 TIP3     2666     TIP3     OH2      OT      -0.834000       15.9994           0
     25235 TIP3     2666     TIP3     H1       HT       0.417000       1.00800           0
     25236 TIP3     2666     TIP3     H2       HT       0.417000       1.00800           0
     25237 TIP3     2667     TIP3     OH2      OT      -0.834000       15.9994           0
     25238 TIP3     2667     TIP3     H1       HT       0.417000       1.00800           0
     25239 TIP3     2667     TIP3     H2       HT       0.417000       1.00800           0
     25240 TIP3     2668     TIP3     OH2      OT      -0.834000       15.9994           0
     25241 TIP3     2668     TIP3     H1       HT       0.417000       1.00800           0
     25242 TIP3     2668     TIP3     H2       HT       0.417000       1.00800           0
     25243 TIP3     2669     TIP3     OH2      OT      -0.834000       15.9994           0
     25244 TIP3     2669     TIP3     H1       HT       0.417000       1.00800           0
     25245 TIP3     2669     TIP3     H2       HT       0.417000       1.00800           0
     25246 TIP3     2670     TIP3     OH2      OT      -0.834000       15.9994           0
     25247 TIP3     2670     TIP3     H1       HT       0.417000       1.00800           0
     25248 TIP3     2670     TIP3     H2       HT       0.417000       1.00800           0
     25249 TIP3     2671     TIP3     OH2      OT      -0.834000       15.9994           0
     25250 TIP3     2671     TIP3     H1       HT       0.417000       1.00800           0
     25251 TIP3     2671     TIP3     H2       HT       0.417000       1.00800           0
     25252 TIP3     2672     TIP3     OH2      OT      -0.834000       15.9994           0
     25253 TIP3     2672     TIP3     H1       HT       0.417000       1.00800           0
     25254 TIP3     2672     TIP3     H2       HT       0.417000       1.00800           0
     25255 TIP3     2673     TIP3     OH2      OT      -0.834000       15.9994           0
     25256 TIP3     2673     TIP3     H1       HT       0.417000       1.00800           0
     25257 TIP3     2673     TIP3     H2       HT       0.417000       1.00800           0
     25258 TIP3     2674     TIP3     OH2      OT      -0.834000       15.9994           0
     25259 TIP3     2674     TIP3     H1       HT       0.417000       1.00800           0
     25260 TIP3     2674     TIP3     H2       HT       0.417000       1.00800           0
     25261 TIP3     2675     TIP3     OH2      OT      -0.834000       15.9994           0
     25262 TIP3     2675     TIP3     H1       HT       0.417000       1.00800           0
     25263 TIP3     2675     TIP3     H2       HT       0.417000       1.00800           0
     25264 TIP3     2676     TIP3     OH2      OT      -0.834000       15.9994           0
     25265 TIP3     2676     TIP3     H1       HT       0.417000       1.00800           0
     25266 TIP3     2676     TIP3     H2       HT       0.417000       1.00800           0
     25267 TIP3     2677     TIP3     OH2      OT      -0.834000       15.9994           0
     25268 TIP3     2677     TIP3     H1       HT       0.417000       1.00800           0
     25269 TIP3     2677     TIP3     H2       HT       0.417000       1.00800           0
     25270 TIP3     2678     TIP3     OH2      OT      -0.834000       15.9994           0
     25271 TIP3     2678     TIP3     H1       HT       0.417000       1.00800           0
     25272 TIP3     2678     TIP3     H2       HT       0.417000       1.00800           0
     25273 TIP3     2679     TIP3     OH2      OT      -0.834000       15.9994           0
     25274 TIP3     2679     TIP3     H1       HT       0.417000       1.00800           0
     25275 TIP3     2679     TIP3     H2       HT       0.417000       1.00800           0
     25276 TIP3     2680     TIP3     OH2      OT      -0.834000       15.9994           0
     25277 TIP3     2680     TIP3     H1       HT       0.417000       1.00800           0
     25278 TIP3     2680     TIP3     H2       HT       0.417000       1.00800           0
     25279 TIP3     2681     TIP3     OH2      OT      -0.834000       15.9994           0
     25280 TIP3     2681     TIP3     H1       HT       0.417000       1.00800           0
     25281 TIP3     2681     TIP3     H2       HT       0.417000       1.00800           0
     25282 TIP3     2682     TIP3     OH2      OT      -0.834000       15.9994           0
     25283 TIP3     2682     TIP3     H1       HT       0.417000       1.00800           0
     25284 TIP3     2682     TIP3     H2       HT       0.417000       1.00800           0
     25285 TIP3     2683     TIP3     OH2      OT      -0.834000       15.9994           0
     25286 TIP3     2683     TIP3     H1       HT       0.417000       1.00800           0
     25287 TIP3     2683     TIP3     H2       HT       0.417000       1.00800           0
     25288 TIP3     2684     TIP3     OH2      OT      -0.834000       15.9994           0
     25289 TIP3     2684     TIP3     H1       HT       0.417000       1.00800           0
     25290 TIP3     2684     TIP3     H2       HT       0.417000       1.00800           0
     25291 TIP3     2685     TIP3     OH2      OT      -0.834000       15.9994           0
     25292 TIP3     2685     TIP3     H1       HT       0.417000       1.00800           0
     25293 TIP3     2685     TIP3     H2       HT       0.417000       1.00800           0
     25294 TIP3     2686     TIP3     OH2      OT      -0.834000       15.9994           0
     25295 TIP3     2686     TIP3     H1       HT       0.417000       1.00800           0
     25296 TIP3     2686     TIP3     H2       HT       0.417000       1.00800           0
     25297 TIP3     2687     TIP3     OH2      OT      -0.834000       15.9994           0
     25298 TIP3     2687     TIP3     H1       HT       0.417000       1.00800           0
     25299 TIP3     2687     TIP3     H2       HT       0.417000       1.00800           0
     25300 TIP3     2688     TIP3     OH2      OT      -0.834000       15.9994           0
     25301 TIP3     2688     TIP3     H1       HT       0.417000       1.00800           0
     25302 TIP3     2688     TIP3     H2       HT       0.417000       1.00800           0
     25303 TIP3     2689     TIP3     OH2      OT      -0.834000       15.9994           0
     25304 TIP3     2689     TIP3     H1       HT       0.417000       1.00800           0
     25305 TIP3     2689     TIP3     H2       HT       0.417000       1.00800           0
     25306 TIP3     2690     TIP3     OH2      OT      -0.834000       15.9994           0
     25307 TIP3     2690     TIP3     H1       HT       0.417000       1.00800           0
     25308 TIP3     2690     TIP3     H2       HT       0.417000       1.00800           0
     25309 TIP3     2691     TIP3     OH2      OT      -0.834000       15.9994           0
     25310 TIP3     2691     TIP3     H1       HT       0.417000       1.00800           0
     25311 TIP3     2691     TIP3     H2       HT       0.417000       1.00800           0
     25312 TIP3     2692     TIP3     OH2      OT      -0.834000       15.9994           0
     25313 TIP3     2692     TIP3     H1       HT       0.417000       1.00800           0
     25314 TIP3     2692     TIP3     H2       HT       0.417000       1.00800           0
     25315 TIP3     2693     TIP3     OH2      OT      -0.834000       15.9994           0
     25316 TIP3     2693     TIP3     H1       HT       0.417000       1.00800           0
     25317 TIP3     2693     TIP3     H2       HT       0.417000       1.00800           0
     25318 TIP3     2694     TIP3     OH2      OT      -0.834000       15.9994           0
     25319 TIP3     2694     TIP3     H1       HT       0.417000       1.00800           0
     25320 TIP3     2694     TIP3     H2       HT       0.417000       1.00800           0
     25321 TIP3     2695     TIP3     OH2      OT      -0.834000       15.9994           0
     25322 TIP3     2695     TIP3     H1       HT       0.417000       1.00800           0
     25323 TIP3     2695     TIP3     H2       HT       0.417000       1.00800           0
     25324 TIP3     2696     TIP3     OH2      OT      -0.834000       15.9994           0
     25325 TIP3     2696     TIP3     H1       HT       0.417000       1.00800           0
     25326 TIP3     2696     TIP3     H2       HT       0.417000       1.00800           0
     25327 TIP3     2697     TIP3     OH2      OT      -0.834000       15.9994           0
     25328 TIP3     2697     TIP3     H1       HT       0.417000       1.00800           0
     25329 TIP3     2697     TIP3     H2       HT       0.417000       1.00800           0
     25330 TIP3     2698     TIP3     OH2      OT      -0.834000       15.9994           0
     25331 TIP3     2698     TIP3     H1       HT       0.417000       1.00800           0
     25332 TIP3     2698     TIP3     H2       HT       0.417000       1.00800           0
     25333 TIP3     2699     TIP3     OH2      OT      -0.834000       15.9994           0
     25334 TIP3     2699     TIP3     H1       HT       0.417000       1.00800           0
     25335 TIP3     2699     TIP3     H2       HT       0.417000       1.00800           0
     25336 TIP3     2700     TIP3     OH2      OT      -0.834000       15.9994           0
     25337 TIP3     2700     TIP3     H1       HT       0.417000       1.00800           0
     25338 TIP3     2700     TIP3     H2       HT       0.417000       1.00800           0
     25339 TIP3     2701     TIP3     OH2      OT      -0.834000       15.9994           0
     25340 TIP3     2701     TIP3     H1       HT       0.417000       1.00800           0
     25341 TIP3     2701     TIP3     H2       HT       0.417000       1.00800           0
     25342 TIP3     2702     TIP3     OH2      OT      -0.834000       15.9994           0
     25343 TIP3     2702     TIP3     H1       HT       0.417000       1.00800           0
     25344 TIP3     2702     TIP3     H2       HT       0.417000       1.00800           0
     25345 TIP3     2703     TIP3     OH2      OT      -0.834000       15.9994           0
     25346 TIP3     2703     TIP3     H1       HT       0.417000       1.00800           0
     25347 TIP3     2703     TIP3     H2       HT       0.417000       1.00800           0
     25348 TIP3     2704     TIP3     OH2      OT      -0.834000       15.9994           0
     25349 TIP3     2704     TIP3     H1       HT       0.417000       1.00800           0
     25350 TIP3     2704     TIP3     H2       HT       0.417000       1.00800           0
     25351 TIP3     2705     TIP3     OH2      OT      -0.834000       15.9994           0
     25352 TIP3     2705     TIP3     H1       HT       0.417000       1.00800           0
     25353 TIP3     2705     TIP3     H2       HT       0.417000       1.00800           0
     25354 TIP3     2706     TIP3     OH2      OT      -0.834000       15.9994           0
     25355 TIP3     2706     TIP3     H1       HT       0.417000       1.00800           0
     25356 TIP3     2706     TIP3     H2       HT       0.417000       1.00800           0
     25357 TIP3     2707     TIP3     OH2      OT      -0.834000       15.9994           0
     25358 TIP3     2707     TIP3     H1       HT       0.417000       1.00800           0
     25359 TIP3     2707     TIP3     H2       HT       0.417000       1.00800           0
     25360 TIP3     2708     TIP3     OH2      OT      -0.834000       15.9994           0
     25361 TIP3     2708     TIP3     H1       HT       0.417000       1.00800           0
     25362 TIP3     2708     TIP3     H2       HT       0.417000       1.00800           0
     25363 TIP3     2709     TIP3     OH2      OT      -0.834000       15.9994           0
     25364 TIP3     2709     TIP3     H1       HT       0.417000       1.00800           0
     25365 TIP3     2709     TIP3     H2       HT       0.417000       1.00800           0
     25366 TIP3     2710     TIP3     OH2      OT      -0.834000       15.9994           0
     25367 TIP3     2710     TIP3     H1       HT       0.417000       1.00800           0
     25368 TIP3     2710     TIP3     H2       HT       0.417000       1.00800           0
     25369 TIP3     2711     TIP3     OH2      OT      -0.834000       15.9994           0
     25370 TIP3     2711     TIP3     H1       HT       0.417000       1.00800           0
     25371 TIP3     2711     TIP3     H2       HT       0.417000       1.00800           0
     25372 TIP3     2712     TIP3     OH2      OT      -0.834000       15.9994           0
     25373 TIP3     2712     TIP3     H1       HT       0.417000       1.00800           0
     25374 TIP3     2712     TIP3     H2       HT       0.417000       1.00800           0
     25375 TIP3     2713     TIP3     OH2      OT      -0.834000       15.9994           0
     25376 TIP3     2713     TIP3     H1       HT       0.417000       1.00800           0
     25377 TIP3     2713     TIP3     H2       HT       0.417000       1.00800           0
     25378 TIP3     2714     TIP3     OH2      OT      -0.834000       15.9994           0
     25379 TIP3     2714     TIP3     H1       HT       0.417000       1.00800           0
     25380 TIP3     2714     TIP3     H2       HT       0.417000       1.00800           0
     25381 TIP3     2715     TIP3     OH2      OT      -0.834000       15.9994           0
     25382 TIP3     2715     TIP3     H1       HT       0.417000       1.00800           0
     25383 TIP3     2715     TIP3     H2       HT       0.417000       1.00800           0
     25384 TIP3     2716     TIP3     OH2      OT      -0.834000       15.9994           0
     25385 TIP3     2716     TIP3     H1       HT       0.417000       1.00800           0
     25386 TIP3     2716     TIP3     H2       HT       0.417000       1.00800           0
     25387 TIP3     2717     TIP3     OH2      OT      -0.834000       15.9994           0
     25388 TIP3     2717     TIP3     H1       HT       0.417000       1.00800           0
     25389 TIP3     2717     TIP3     H2       HT       0.417000       1.00800           0
     25390 TIP3     2718     TIP3     OH2      OT      -0.834000       15.9994           0
     25391 TIP3     2718     TIP3     H1       HT       0.417000       1.00800           0
     25392 TIP3     2718     TIP3     H2       HT       0.417000       1.00800           0
     25393 TIP3     2719     TIP3     OH2      OT      -0.834000       15.9994           0
     25394 TIP3     2719     TIP3     H1       HT       0.417000       1.00800           0
     25395 TIP3     2719     TIP3     H2       HT       0.417000       1.00800           0
     25396 TIP3     2720     TIP3     OH2      OT      -0.834000       15.9994           0
     25397 TIP3     2720     TIP3     H1       HT       0.417000       1.00800           0
     25398 TIP3     2720     TIP3     H2       HT       0.417000       1.00800           0
     25399 TIP3     2721     TIP3     OH2      OT      -0.834000       15.9994           0
     25400 TIP3     2721     TIP3     H1       HT       0.417000       1.00800           0
     25401 TIP3     2721     TIP3     H2       HT       0.417000       1.00800           0
     25402 TIP3     2722     TIP3     OH2      OT      -0.834000       15.9994           0
     25403 TIP3     2722     TIP3     H1       HT       0.417000       1.00800           0
     25404 TIP3     2722     TIP3     H2       HT       0.417000       1.00800           0
     25405 TIP3     2723     TIP3     OH2      OT      -0.834000       15.9994           0
     25406 TIP3     2723     TIP3     H1       HT       0.417000       1.00800           0
     25407 TIP3     2723     TIP3     H2       HT       0.417000       1.00800           0
     25408 TIP3     2724     TIP3     OH2      OT      -0.834000       15.9994           0
     25409 TIP3     2724     TIP3     H1       HT       0.417000       1.00800           0
     25410 TIP3     2724     TIP3     H2       HT       0.417000       1.00800           0
     25411 TIP3     2725     TIP3     OH2      OT      -0.834000       15.9994           0
     25412 TIP3     2725     TIP3     H1       HT       0.417000       1.00800           0
     25413 TIP3     2725     TIP3     H2       HT       0.417000       1.00800           0
     25414 TIP3     2726     TIP3     OH2      OT      -0.834000       15.9994           0
     25415 TIP3     2726     TIP3     H1       HT       0.417000       1.00800           0
     25416 TIP3     2726     TIP3     H2       HT       0.417000       1.00800           0
     25417 TIP3     2727     TIP3     OH2      OT      -0.834000       15.9994           0
     25418 TIP3     2727     TIP3     H1       HT       0.417000       1.00800           0
     25419 TIP3     2727     TIP3     H2       HT       0.417000       1.00800           0
     25420 TIP3     2728     TIP3     OH2      OT      -0.834000       15.9994           0
     25421 TIP3     2728     TIP3     H1       HT       0.417000       1.00800           0
     25422 TIP3     2728     TIP3     H2       HT       0.417000       1.00800           0
     25423 TIP3     2729     TIP3     OH2      OT      -0.834000       15.9994           0
     25424 TIP3     2729     TIP3     H1       HT       0.417000       1.00800           0
     25425 TIP3     2729     TIP3     H2       HT       0.417000       1.00800           0
     25426 TIP3     2730     TIP3     OH2      OT      -0.834000       15.9994           0
     25427 TIP3     2730     TIP3     H1       HT       0.417000       1.00800           0
     25428 TIP3     2730     TIP3     H2       HT       0.417000       1.00800           0
     25429 TIP3     2731     TIP3     OH2      OT      -0.834000       15.9994           0
     25430 TIP3     2731     TIP3     H1       HT       0.417000       1.00800           0
     25431 TIP3     2731     TIP3     H2       HT       0.417000       1.00800           0
     25432 TIP3     2732     TIP3     OH2      OT      -0.834000       15.9994           0
     25433 TIP3     2732     TIP3     H1       HT       0.417000       1.00800           0
     25434 TIP3     2732     TIP3     H2       HT       0.417000       1.00800           0
     25435 TIP3     2733     TIP3     OH2      OT      -0.834000       15.9994           0
     25436 TIP3     2733     TIP3     H1       HT       0.417000       1.00800           0
     25437 TIP3     2733     TIP3     H2       HT       0.417000       1.00800           0
     25438 TIP3     2734     TIP3     OH2      OT      -0.834000       15.9994           0
     25439 TIP3     2734     TIP3     H1       HT       0.417000       1.00800           0
     25440 TIP3     2734     TIP3     H2       HT       0.417000       1.00800           0
     25441 TIP3     2735     TIP3     OH2      OT      -0.834000       15.9994           0
     25442 TIP3     2735     TIP3     H1       HT       0.417000       1.00800           0
     25443 TIP3     2735     TIP3     H2       HT       0.417000       1.00800           0
     25444 TIP3     2736     TIP3     OH2      OT      -0.834000       15.9994           0
     25445 TIP3     2736     TIP3     H1       HT       0.417000       1.00800           0
     25446 TIP3     2736     TIP3     H2       HT       0.417000       1.00800           0
     25447 TIP3     2737     TIP3     OH2      OT      -0.834000       15.9994           0
     25448 TIP3     2737     TIP3     H1       HT       0.417000       1.00800           0
     25449 TIP3     2737     TIP3     H2       HT       0.417000       1.00800           0
     25450 TIP3     2738     TIP3     OH2      OT      -0.834000       15.9994           0
     25451 TIP3     2738     TIP3     H1       HT       0.417000       1.00800           0
     25452 TIP3     2738     TIP3     H2       HT       0.417000       1.00800           0
     25453 TIP3     2739     TIP3     OH2      OT      -0.834000       15.9994           0
     25454 TIP3     2739     TIP3     H1       HT       0.417000       1.00800           0
     25455 TIP3     2739     TIP3     H2       HT       0.417000       1.00800           0
     25456 TIP3     2740     TIP3     OH2      OT      -0.834000       15.9994           0
     25457 TIP3     2740     TIP3     H1       HT       0.417000       1.00800           0
     25458 TIP3     2740     TIP3     H2       HT       0.417000       1.00800           0
     25459 TIP3     2741     TIP3     OH2      OT      -0.834000       15.9994           0
     25460 TIP3     2741     TIP3     H1       HT       0.417000       1.00800           0
     25461 TIP3     2741     TIP3     H2       HT       0.417000       1.00800           0
     25462 TIP3     2742     TIP3     OH2      OT      -0.834000       15.9994           0
     25463 TIP3     2742     TIP3     H1       HT       0.417000       1.00800           0
     25464 TIP3     2742     TIP3     H2       HT       0.417000       1.00800           0
     25465 TIP3     2743     TIP3     OH2      OT      -0.834000       15.9994           0
     25466 TIP3     2743     TIP3     H1       HT       0.417000       1.00800           0
     25467 TIP3     2743     TIP3     H2       HT       0.417000       1.00800           0
     25468 TIP3     2744     TIP3     OH2      OT      -0.834000       15.9994           0
     25469 TIP3     2744     TIP3     H1       HT       0.417000       1.00800           0
     25470 TIP3     2744     TIP3     H2       HT       0.417000       1.00800           0
     25471 TIP3     2745     TIP3     OH2      OT      -0.834000       15.9994           0
     25472 TIP3     2745     TIP3     H1       HT       0.417000       1.00800           0
     25473 TIP3     2745     TIP3     H2       HT       0.417000       1.00800           0
     25474 TIP3     2746     TIP3     OH2      OT      -0.834000       15.9994           0
     25475 TIP3     2746     TIP3     H1       HT       0.417000       1.00800           0
     25476 TIP3     2746     TIP3     H2       HT       0.417000       1.00800           0
     25477 TIP3     2747     TIP3     OH2      OT      -0.834000       15.9994           0
     25478 TIP3     2747     TIP3     H1       HT       0.417000       1.00800           0
     25479 TIP3     2747     TIP3     H2       HT       0.417000       1.00800           0
     25480 TIP3     2748     TIP3     OH2      OT      -0.834000       15.9994           0
     25481 TIP3     2748     TIP3     H1       HT       0.417000       1.00800           0
     25482 TIP3     2748     TIP3     H2       HT       0.417000       1.00800           0
     25483 TIP3     2749     TIP3     OH2      OT      -0.834000       15.9994           0
     25484 TIP3     2749     TIP3     H1       HT       0.417000       1.00800           0
     25485 TIP3     2749     TIP3     H2       HT       0.417000       1.00800           0
     25486 TIP3     2750     TIP3     OH2      OT      -0.834000       15.9994           0
     25487 TIP3     2750     TIP3     H1       HT       0.417000       1.00800           0
     25488 TIP3     2750     TIP3     H2       HT       0.417000       1.00800           0
     25489 TIP3     2751     TIP3     OH2      OT      -0.834000       15.9994           0
     25490 TIP3     2751     TIP3     H1       HT       0.417000       1.00800           0
     25491 TIP3     2751     TIP3     H2       HT       0.417000       1.00800           0
     25492 TIP3     2752     TIP3     OH2      OT      -0.834000       15.9994           0
     25493 TIP3     2752     TIP3     H1       HT       0.417000       1.00800           0
     25494 TIP3     2752     TIP3     H2       HT       0.417000       1.00800           0
     25495 TIP3     2753     TIP3     OH2      OT      -0.834000       15.9994           0
     25496 TIP3     2753     TIP3     H1       HT       0.417000       1.00800           0
     25497 TIP3     2753     TIP3     H2       HT       0.417000       1.00800           0
     25498 TIP3     2754     TIP3     OH2      OT      -0.834000       15.9994           0
     25499 TIP3     2754     TIP3     H1       HT       0.417000       1.00800           0
     25500 TIP3     2754     TIP3     H2       HT       0.417000       1.00800           0
     25501 TIP3     2755     TIP3     OH2      OT      -0.834000       15.9994           0
     25502 TIP3     2755     TIP3     H1       HT       0.417000       1.00800           0
     25503 TIP3     2755     TIP3     H2       HT       0.417000       1.00800           0
     25504 TIP3     2756     TIP3     OH2      OT      -0.834000       15.9994           0
     25505 TIP3     2756     TIP3     H1       HT       0.417000       1.00800           0
     25506 TIP3     2756     TIP3     H2       HT       0.417000       1.00800           0
     25507 TIP3     2757     TIP3     OH2      OT      -0.834000       15.9994           0
     25508 TIP3     2757     TIP3     H1       HT       0.417000       1.00800           0
     25509 TIP3     2757     TIP3     H2       HT       0.417000       1.00800           0
     25510 TIP3     2758     TIP3     OH2      OT      -0.834000       15.9994           0
     25511 TIP3     2758     TIP3     H1       HT       0.417000       1.00800           0
     25512 TIP3     2758     TIP3     H2       HT       0.417000       1.00800           0
     25513 TIP3     2759     TIP3     OH2      OT      -0.834000       15.9994           0
     25514 TIP3     2759     TIP3     H1       HT       0.417000       1.00800           0
     25515 TIP3     2759     TIP3     H2       HT       0.417000       1.00800           0
     25516 TIP3     2760     TIP3     OH2      OT      -0.834000       15.9994           0
     25517 TIP3     2760     TIP3     H1       HT       0.417000       1.00800           0
     25518 TIP3     2760     TIP3     H2       HT       0.417000       1.00800           0
     25519 TIP3     2761     TIP3     OH2      OT      -0.834000       15.9994           0
     25520 TIP3     2761     TIP3     H1       HT       0.417000       1.00800           0
     25521 TIP3     2761     TIP3     H2       HT       0.417000       1.00800           0
     25522 TIP3     2762     TIP3     OH2      OT      -0.834000       15.9994           0
     25523 TIP3     2762     TIP3     H1       HT       0.417000       1.00800           0
     25524 TIP3     2762     TIP3     H2       HT       0.417000       1.00800           0
     25525 TIP3     2763     TIP3     OH2      OT      -0.834000       15.9994           0
     25526 TIP3     2763     TIP3     H1       HT       0.417000       1.00800           0
     25527 TIP3     2763     TIP3     H2       HT       0.417000       1.00800           0
     25528 TIP3     2764     TIP3     OH2      OT      -0.834000       15.9994           0
     25529 TIP3     2764     TIP3     H1       HT       0.417000       1.00800           0
     25530 TIP3     2764     TIP3     H2       HT       0.417000       1.00800           0
     25531 TIP3     2765     TIP3     OH2      OT      -0.834000       15.9994           0
     25532 TIP3     2765     TIP3     H1       HT       0.417000       1.00800           0
     25533 TIP3     2765     TIP3     H2       HT       0.417000       1.00800           0
     25534 TIP3     2766     TIP3     OH2      OT      -0.834000       15.9994           0
     25535 TIP3     2766     TIP3     H1       HT       0.417000       1.00800           0
     25536 TIP3     2766     TIP3     H2       HT       0.417000       1.00800           0
     25537 TIP3     2767     TIP3     OH2      OT      -0.834000       15.9994           0
     25538 TIP3     2767     TIP3     H1       HT       0.417000       1.00800           0
     25539 TIP3     2767     TIP3     H2       HT       0.417000       1.00800           0
     25540 TIP3     2768     TIP3     OH2      OT      -0.834000       15.9994           0
     25541 TIP3     2768     TIP3     H1       HT       0.417000       1.00800           0
     25542 TIP3     2768     TIP3     H2       HT       0.417000       1.00800           0
     25543 TIP3     2769     TIP3     OH2      OT      -0.834000       15.9994           0
     25544 TIP3     2769     TIP3     H1       HT       0.417000       1.00800           0
     25545 TIP3     2769     TIP3     H2       HT       0.417000       1.00800           0
     25546 TIP3     2770     TIP3     OH2      OT      -0.834000       15.9994           0
     25547 TIP3     2770     TIP3     H1       HT       0.417000       1.00800           0
     25548 TIP3     2770     TIP3     H2       HT       0.417000       1.00800           0
     25549 TIP3     2771     TIP3     OH2      OT      -0.834000       15.9994           0
     25550 TIP3     2771     TIP3     H1       HT       0.417000       1.00800           0
     25551 TIP3     2771     TIP3     H2       HT       0.417000       1.00800           0
     25552 TIP3     2772     TIP3     OH2      OT      -0.834000       15.9994           0
     25553 TIP3     2772     TIP3     H1       HT       0.417000       1.00800           0
     25554 TIP3     2772     TIP3     H2       HT       0.417000       1.00800           0
     25555 TIP3     2773     TIP3     OH2      OT      -0.834000       15.9994           0
     25556 TIP3     2773     TIP3     H1       HT       0.417000       1.00800           0
     25557 TIP3     2773     TIP3     H2       HT       0.417000       1.00800           0
     25558 TIP3     2774     TIP3     OH2      OT      -0.834000       15.9994           0
     25559 TIP3     2774     TIP3     H1       HT       0.417000       1.00800           0
     25560 TIP3     2774     TIP3     H2       HT       0.417000       1.00800           0
     25561 TIP3     2775     TIP3     OH2      OT      -0.834000       15.9994           0
     25562 TIP3     2775     TIP3     H1       HT       0.417000       1.00800           0
     25563 TIP3     2775     TIP3     H2       HT       0.417000       1.00800           0
     25564 TIP3     2776     TIP3     OH2      OT      -0.834000       15.9994           0
     25565 TIP3     2776     TIP3     H1       HT       0.417000       1.00800           0
     25566 TIP3     2776     TIP3     H2       HT       0.417000       1.00800           0
     25567 TIP3     2777     TIP3     OH2      OT      -0.834000       15.9994           0
     25568 TIP3     2777     TIP3     H1       HT       0.417000       1.00800           0
     25569 TIP3     2777     TIP3     H2       HT       0.417000       1.00800           0
     25570 TIP3     2778     TIP3     OH2      OT      -0.834000       15.9994           0
     25571 TIP3     2778     TIP3     H1       HT       0.417000       1.00800           0
     25572 TIP3     2778     TIP3     H2       HT       0.417000       1.00800           0
     25573 TIP3     2779     TIP3     OH2      OT      -0.834000       15.9994           0
     25574 TIP3     2779     TIP3     H1       HT       0.417000       1.00800           0
     25575 TIP3     2779     TIP3     H2       HT       0.417000       1.00800           0
     25576 TIP3     2780     TIP3     OH2      OT      -0.834000       15.9994           0
     25577 TIP3     2780     TIP3     H1       HT       0.417000       1.00800           0
     25578 TIP3     2780     TIP3     H2       HT       0.417000       1.00800           0
     25579 TIP3     2781     TIP3     OH2      OT      -0.834000       15.9994           0
     25580 TIP3     2781     TIP3     H1       HT       0.417000       1.00800           0
     25581 TIP3     2781     TIP3     H2       HT       0.417000       1.00800           0
     25582 TIP3     2782     TIP3     OH2      OT      -0.834000       15.9994           0
     25583 TIP3     2782     TIP3     H1       HT       0.417000       1.00800           0
     25584 TIP3     2782     TIP3     H2       HT       0.417000       1.00800           0
     25585 TIP3     2783     TIP3     OH2      OT      -0.834000       15.9994           0
     25586 TIP3     2783     TIP3     H1       HT       0.417000       1.00800           0
     25587 TIP3     2783     TIP3     H2       HT       0.417000       1.00800           0
     25588 TIP3     2784     TIP3     OH2      OT      -0.834000       15.9994           0
     25589 TIP3     2784     TIP3     H1       HT       0.417000       1.00800           0
     25590 TIP3     2784     TIP3     H2       HT       0.417000       1.00800           0
     25591 TIP3     2785     TIP3     OH2      OT      -0.834000       15.9994           0
     25592 TIP3     2785     TIP3     H1       HT       0.417000       1.00800           0
     25593 TIP3     2785     TIP3     H2       HT       0.417000       1.00800           0
     25594 TIP3     2786     TIP3     OH2      OT      -0.834000       15.9994           0
     25595 TIP3     2786     TIP3     H1       HT       0.417000       1.00800           0
     25596 TIP3     2786     TIP3     H2       HT       0.417000       1.00800           0
     25597 TIP3     2787     TIP3     OH2      OT      -0.834000       15.9994           0
     25598 TIP3     2787     TIP3     H1       HT       0.417000       1.00800           0
     25599 TIP3     2787     TIP3     H2       HT       0.417000       1.00800           0
     25600 TIP3     2788     TIP3     OH2      OT      -0.834000       15.9994           0
     25601 TIP3     2788     TIP3     H1       HT       0.417000       1.00800           0
     25602 TIP3     2788     TIP3     H2       HT       0.417000       1.00800           0
     25603 TIP3     2789     TIP3     OH2      OT      -0.834000       15.9994           0
     25604 TIP3     2789     TIP3     H1       HT       0.417000       1.00800           0
     25605 TIP3     2789     TIP3     H2       HT       0.417000       1.00800           0
     25606 TIP3     2790     TIP3     OH2      OT      -0.834000       15.9994           0
     25607 TIP3     2790     TIP3     H1       HT       0.417000       1.00800           0
     25608 TIP3     2790     TIP3     H2       HT       0.417000       1.00800           0
     25609 TIP3     2791     TIP3     OH2      OT      -0.834000       15.9994           0
     25610 TIP3     2791     TIP3     H1       HT       0.417000       1.00800           0
     25611 TIP3     2791     TIP3     H2       HT       0.417000       1.00800           0
     25612 TIP3     2792     TIP3     OH2      OT      -0.834000       15.9994           0
     25613 TIP3     2792     TIP3     H1       HT       0.417000       1.00800           0
     25614 TIP3     2792     TIP3     H2       HT       0.417000       1.00800           0
     25615 TIP3     2793     TIP3     OH2      OT      -0.834000       15.9994           0
     25616 TIP3     2793     TIP3     H1       HT       0.417000       1.00800           0
     25617 TIP3     2793     TIP3     H2       HT       0.417000       1.00800           0
     25618 TIP3     2794     TIP3     OH2      OT      -0.834000       15.9994           0
     25619 TIP3     2794     TIP3     H1       HT       0.417000       1.00800           0
     25620 TIP3     2794     TIP3     H2       HT       0.417000       1.00800           0
     25621 TIP3     2795     TIP3     OH2      OT      -0.834000       15.9994           0
     25622 TIP3     2795     TIP3     H1       HT       0.417000       1.00800           0
     25623 TIP3     2795     TIP3     H2       HT       0.417000       1.00800           0
     25624 TIP3     2796     TIP3     OH2      OT      -0.834000       15.9994           0
     25625 TIP3     2796     TIP3     H1       HT       0.417000       1.00800           0
     25626 TIP3     2796     TIP3     H2       HT       0.417000       1.00800           0
     25627 TIP3     2797     TIP3     OH2      OT      -0.834000       15.9994           0
     25628 TIP3     2797     TIP3     H1       HT       0.417000       1.00800           0
     25629 TIP3     2797     TIP3     H2       HT       0.417000       1.00800           0
     25630 TIP3     2798     TIP3     OH2      OT      -0.834000       15.9994           0
     25631 TIP3     2798     TIP3     H1       HT       0.417000       1.00800           0
     25632 TIP3     2798     TIP3     H2       HT       0.417000       1.00800           0
     25633 TIP3     2799     TIP3     OH2      OT      -0.834000       15.9994           0
     25634 TIP3     2799     TIP3     H1       HT       0.417000       1.00800           0
     25635 TIP3     2799     TIP3     H2       HT       0.417000       1.00800           0
     25636 TIP3     2800     TIP3     OH2      OT      -0.834000       15.9994           0
     25637 TIP3     2800     TIP3     H1       HT       0.417000       1.00800           0
     25638 TIP3     2800     TIP3     H2       HT       0.417000       1.00800           0
     25639 TIP3     2801     TIP3     OH2      OT      -0.834000       15.9994           0
     25640 TIP3     2801     TIP3     H1       HT       0.417000       1.00800           0
     25641 TIP3     2801     TIP3     H2       HT       0.417000       1.00800           0
     25642 TIP3     2802     TIP3     OH2      OT      -0.834000       15.9994           0
     25643 TIP3     2802     TIP3     H1       HT       0.417000       1.00800           0
     25644 TIP3     2802     TIP3     H2       HT       0.417000       1.00800           0
     25645 TIP3     2803     TIP3     OH2      OT      -0.834000       15.9994           0
     25646 TIP3     2803     TIP3     H1       HT       0.417000       1.00800           0
     25647 TIP3     2803     TIP3     H2       HT       0.417000       1.00800           0
     25648 TIP3     2804     TIP3     OH2      OT      -0.834000       15.9994           0
     25649 TIP3     2804     TIP3     H1       HT       0.417000       1.00800           0
     25650 TIP3     2804     TIP3     H2       HT       0.417000       1.00800           0
     25651 TIP3     2805     TIP3     OH2      OT      -0.834000       15.9994           0
     25652 TIP3     2805     TIP3     H1       HT       0.417000       1.00800           0
     25653 TIP3     2805     TIP3     H2       HT       0.417000       1.00800           0
     25654 TIP3     2806     TIP3     OH2      OT      -0.834000       15.9994           0
     25655 TIP3     2806     TIP3     H1       HT       0.417000       1.00800           0
     25656 TIP3     2806     TIP3     H2       HT       0.417000       1.00800           0
     25657 TIP3     2807     TIP3     OH2      OT      -0.834000       15.9994           0
     25658 TIP3     2807     TIP3     H1       HT       0.417000       1.00800           0
     25659 TIP3     2807     TIP3     H2       HT       0.417000       1.00800           0
     25660 TIP3     2808     TIP3     OH2      OT      -0.834000       15.9994           0
     25661 TIP3     2808     TIP3     H1       HT       0.417000       1.00800           0
     25662 TIP3     2808     TIP3     H2       HT       0.417000       1.00800           0
     25663 TIP3     2809     TIP3     OH2      OT      -0.834000       15.9994           0
     25664 TIP3     2809     TIP3     H1       HT       0.417000       1.00800           0
     25665 TIP3     2809     TIP3     H2       HT       0.417000       1.00800           0
     25666 TIP3     2810     TIP3     OH2      OT      -0.834000       15.9994           0
     25667 TIP3     2810     TIP3     H1       HT       0.417000       1.00800           0
     25668 TIP3     2810     TIP3     H2       HT       0.417000       1.00800           0
     25669 TIP3     2811     TIP3     OH2      OT      -0.834000       15.9994           0
     25670 TIP3     2811     TIP3     H1       HT       0.417000       1.00800           0
     25671 TIP3     2811     TIP3     H2       HT       0.417000       1.00800           0
     25672 TIP3     2812     TIP3     OH2      OT      -0.834000       15.9994           0
     25673 TIP3     2812     TIP3     H1       HT       0.417000       1.00800           0
     25674 TIP3     2812     TIP3     H2       HT       0.417000       1.00800           0
     25675 TIP3     2813     TIP3     OH2      OT      -0.834000       15.9994           0
     25676 TIP3     2813     TIP3     H1       HT       0.417000       1.00800           0
     25677 TIP3     2813     TIP3     H2       HT       0.417000       1.00800           0
     25678 TIP3     2814     TIP3     OH2      OT      -0.834000       15.9994           0
     25679 TIP3     2814     TIP3     H1       HT       0.417000       1.00800           0
     25680 TIP3     2814     TIP3     H2       HT       0.417000       1.00800           0
     25681 TIP3     2815     TIP3     OH2      OT      -0.834000       15.9994           0
     25682 TIP3     2815     TIP3     H1       HT       0.417000       1.00800           0
     25683 TIP3     2815     TIP3     H2       HT       0.417000       1.00800           0
     25684 TIP3     2816     TIP3     OH2      OT      -0.834000       15.9994           0
     25685 TIP3     2816     TIP3     H1       HT       0.417000       1.00800           0
     25686 TIP3     2816     TIP3     H2       HT       0.417000       1.00800           0
     25687 TIP3     2817     TIP3     OH2      OT      -0.834000       15.9994           0
     25688 TIP3     2817     TIP3     H1       HT       0.417000       1.00800           0
     25689 TIP3     2817     TIP3     H2       HT       0.417000       1.00800           0
     25690 TIP3     2818     TIP3     OH2      OT      -0.834000       15.9994           0
     25691 TIP3     2818     TIP3     H1       HT       0.417000       1.00800           0
     25692 TIP3     2818     TIP3     H2       HT       0.417000       1.00800           0
     25693 TIP3     2819     TIP3     OH2      OT      -0.834000       15.9994           0
     25694 TIP3     2819     TIP3     H1       HT       0.417000       1.00800           0
     25695 TIP3     2819     TIP3     H2       HT       0.417000       1.00800           0
     25696 TIP3     2820     TIP3     OH2      OT      -0.834000       15.9994           0
     25697 TIP3     2820     TIP3     H1       HT       0.417000       1.00800           0
     25698 TIP3     2820     TIP3     H2       HT       0.417000       1.00800           0
     25699 TIP3     2821     TIP3     OH2      OT      -0.834000       15.9994           0
     25700 TIP3     2821     TIP3     H1       HT       0.417000       1.00800           0
     25701 TIP3     2821     TIP3     H2       HT       0.417000       1.00800           0
     25702 TIP3     2822     TIP3     OH2      OT      -0.834000       15.9994           0
     25703 TIP3     2822     TIP3     H1       HT       0.417000       1.00800           0
     25704 TIP3     2822     TIP3     H2       HT       0.417000       1.00800           0
     25705 TIP3     2823     TIP3     OH2      OT      -0.834000       15.9994           0
     25706 TIP3     2823     TIP3     H1       HT       0.417000       1.00800           0
     25707 TIP3     2823     TIP3     H2       HT       0.417000       1.00800           0
     25708 TIP3     2824     TIP3     OH2      OT      -0.834000       15.9994           0
     25709 TIP3     2824     TIP3     H1       HT       0.417000       1.00800           0
     25710 TIP3     2824     TIP3     H2       HT       0.417000       1.00800           0
     25711 TIP3     2825     TIP3     OH2      OT      -0.834000       15.9994           0
     25712 TIP3     2825     TIP3     H1       HT       0.417000       1.00800           0
     25713 TIP3     2825     TIP3     H2       HT       0.417000       1.00800           0
     25714 TIP3     2826     TIP3     OH2      OT      -0.834000       15.9994           0
     25715 TIP3     2826     TIP3     H1       HT       0.417000       1.00800           0
     25716 TIP3     2826     TIP3     H2       HT       0.417000       1.00800           0
     25717 TIP3     2827     TIP3     OH2      OT      -0.834000       15.9994           0
     25718 TIP3     2827     TIP3     H1       HT       0.417000       1.00800           0
     25719 TIP3     2827     TIP3     H2       HT       0.417000       1.00800           0
     25720 TIP3     2828     TIP3     OH2      OT      -0.834000       15.9994           0
     25721 TIP3     2828     TIP3     H1       HT       0.417000       1.00800           0
     25722 TIP3     2828     TIP3     H2       HT       0.417000       1.00800           0
     25723 TIP3     2829     TIP3     OH2      OT      -0.834000       15.9994           0
     25724 TIP3     2829     TIP3     H1       HT       0.417000       1.00800           0
     25725 TIP3     2829     TIP3     H2       HT       0.417000       1.00800           0
     25726 TIP3     2830     TIP3     OH2      OT      -0.834000       15.9994           0
     25727 TIP3     2830     TIP3     H1       HT       0.417000       1.00800           0
     25728 TIP3     2830     TIP3     H2       HT       0.417000       1.00800           0
     25729 TIP3     2831     TIP3     OH2      OT      -0.834000       15.9994           0
     25730 TIP3     2831     TIP3     H1       HT       0.417000       1.00800           0
     25731 TIP3     2831     TIP3     H2       HT       0.417000       1.00800           0
     25732 TIP3     2832     TIP3     OH2      OT      -0.834000       15.9994           0
     25733 TIP3     2832     TIP3     H1       HT       0.417000       1.00800           0
     25734 TIP3     2832     TIP3     H2       HT       0.417000       1.00800           0
     25735 TIP3     2833     TIP3     OH2      OT      -0.834000       15.9994           0
     25736 TIP3     2833     TIP3     H1       HT       0.417000       1.00800           0
     25737 TIP3     2833     TIP3     H2       HT       0.417000       1.00800           0
     25738 TIP3     2834     TIP3     OH2      OT      -0.834000       15.9994           0
     25739 TIP3     2834     TIP3     H1       HT       0.417000       1.00800           0
     25740 TIP3     2834     TIP3     H2       HT       0.417000       1.00800           0
     25741 TIP3     2835     TIP3     OH2      OT      -0.834000       15.9994           0
     25742 TIP3     2835     TIP3     H1       HT       0.417000       1.00800           0
     25743 TIP3     2835     TIP3     H2       HT       0.417000       1.00800           0
     25744 TIP3     2836     TIP3     OH2      OT      -0.834000       15.9994           0
     25745 TIP3     2836     TIP3     H1       HT       0.417000       1.00800           0
     25746 TIP3     2836     TIP3     H2       HT       0.417000       1.00800           0
     25747 TIP3     2837     TIP3     OH2      OT      -0.834000       15.9994           0
     25748 TIP3     2837     TIP3     H1       HT       0.417000       1.00800           0
     25749 TIP3     2837     TIP3     H2       HT       0.417000       1.00800           0
     25750 TIP3     2838     TIP3     OH2      OT      -0.834000       15.9994           0
     25751 TIP3     2838     TIP3     H1       HT       0.417000       1.00800           0
     25752 TIP3     2838     TIP3     H2       HT       0.417000       1.00800           0
     25753 TIP3     2839     TIP3     OH2      OT      -0.834000       15.9994           0
     25754 TIP3     2839     TIP3     H1       HT       0.417000       1.00800           0
     25755 TIP3     2839     TIP3     H2       HT       0.417000       1.00800           0
     25756 TIP3     2840     TIP3     OH2      OT      -0.834000       15.9994           0
     25757 TIP3     2840     TIP3     H1       HT       0.417000       1.00800           0
     25758 TIP3     2840     TIP3     H2       HT       0.417000       1.00800           0
     25759 TIP3     2841     TIP3     OH2      OT      -0.834000       15.9994           0
     25760 TIP3     2841     TIP3     H1       HT       0.417000       1.00800           0
     25761 TIP3     2841     TIP3     H2       HT       0.417000       1.00800           0
     25762 TIP3     2842     TIP3     OH2      OT      -0.834000       15.9994           0
     25763 TIP3     2842     TIP3     H1       HT       0.417000       1.00800           0
     25764 TIP3     2842     TIP3     H2       HT       0.417000       1.00800           0
     25765 TIP3     2843     TIP3     OH2      OT      -0.834000       15.9994           0
     25766 TIP3     2843     TIP3     H1       HT       0.417000       1.00800           0
     25767 TIP3     2843     TIP3     H2       HT       0.417000       1.00800           0
     25768 TIP3     2844     TIP3     OH2      OT      -0.834000       15.9994           0
     25769 TIP3     2844     TIP3     H1       HT       0.417000       1.00800           0
     25770 TIP3     2844     TIP3     H2       HT       0.417000       1.00800           0
     25771 TIP3     2845     TIP3     OH2      OT      -0.834000       15.9994           0
     25772 TIP3     2845     TIP3     H1       HT       0.417000       1.00800           0
     25773 TIP3     2845     TIP3     H2       HT       0.417000       1.00800           0
     25774 TIP3     2846     TIP3     OH2      OT      -0.834000       15.9994           0
     25775 TIP3     2846     TIP3     H1       HT       0.417000       1.00800           0
     25776 TIP3     2846     TIP3     H2       HT       0.417000       1.00800           0
     25777 TIP3     2847     TIP3     OH2      OT      -0.834000       15.9994           0
     25778 TIP3     2847     TIP3     H1       HT       0.417000       1.00800           0
     25779 TIP3     2847     TIP3     H2       HT       0.417000       1.00800           0
     25780 TIP3     2848     TIP3     OH2      OT      -0.834000       15.9994           0
     25781 TIP3     2848     TIP3     H1       HT       0.417000       1.00800           0
     25782 TIP3     2848     TIP3     H2       HT       0.417000       1.00800           0
     25783 TIP3     2849     TIP3     OH2      OT      -0.834000       15.9994           0
     25784 TIP3     2849     TIP3     H1       HT       0.417000       1.00800           0
     25785 TIP3     2849     TIP3     H2       HT       0.417000       1.00800           0
     25786 TIP3     2850     TIP3     OH2      OT      -0.834000       15.9994           0
     25787 TIP3     2850     TIP3     H1       HT       0.417000       1.00800           0
     25788 TIP3     2850     TIP3     H2       HT       0.417000       1.00800           0
     25789 TIP3     2851     TIP3     OH2      OT      -0.834000       15.9994           0
     25790 TIP3     2851     TIP3     H1       HT       0.417000       1.00800           0
     25791 TIP3     2851     TIP3     H2       HT       0.417000       1.00800           0
     25792 TIP3     2852     TIP3     OH2      OT      -0.834000       15.9994           0
     25793 TIP3     2852     TIP3     H1       HT       0.417000       1.00800           0
     25794 TIP3     2852     TIP3     H2       HT       0.417000       1.00800           0
     25795 TIP3     2853     TIP3     OH2      OT      -0.834000       15.9994           0
     25796 TIP3     2853     TIP3     H1       HT       0.417000       1.00800           0
     25797 TIP3     2853     TIP3     H2       HT       0.417000       1.00800           0
     25798 TIP3     2854     TIP3     OH2      OT      -0.834000       15.9994           0
     25799 TIP3     2854     TIP3     H1       HT       0.417000       1.00800           0
     25800 TIP3     2854     TIP3     H2       HT       0.417000       1.00800           0
     25801 TIP3     2855     TIP3     OH2      OT      -0.834000       15.9994           0
     25802 TIP3     2855     TIP3     H1       HT       0.417000       1.00800           0
     25803 TIP3     2855     TIP3     H2       HT       0.417000       1.00800           0
     25804 TIP3     2856     TIP3     OH2      OT      -0.834000       15.9994           0
     25805 TIP3     2856     TIP3     H1       HT       0.417000       1.00800           0
     25806 TIP3     2856     TIP3     H2       HT       0.417000       1.00800           0
     25807 TIP3     2857     TIP3     OH2      OT      -0.834000       15.9994           0
     25808 TIP3     2857     TIP3     H1       HT       0.417000       1.00800           0
     25809 TIP3     2857     TIP3     H2       HT       0.417000       1.00800           0
     25810 TIP3     2858     TIP3     OH2      OT      -0.834000       15.9994           0
     25811 TIP3     2858     TIP3     H1       HT       0.417000       1.00800           0
     25812 TIP3     2858     TIP3     H2       HT       0.417000       1.00800           0
     25813 TIP3     2859     TIP3     OH2      OT      -0.834000       15.9994           0
     25814 TIP3     2859     TIP3     H1       HT       0.417000       1.00800           0
     25815 TIP3     2859     TIP3     H2       HT       0.417000       1.00800           0
     25816 TIP3     2860     TIP3     OH2      OT      -0.834000       15.9994           0
     25817 TIP3     2860     TIP3     H1       HT       0.417000       1.00800           0
     25818 TIP3     2860     TIP3     H2       HT       0.417000       1.00800           0
     25819 TIP3     2861     TIP3     OH2      OT      -0.834000       15.9994           0
     25820 TIP3     2861     TIP3     H1       HT       0.417000       1.00800           0
     25821 TIP3     2861     TIP3     H2       HT       0.417000       1.00800           0
     25822 TIP3     2862     TIP3     OH2      OT      -0.834000       15.9994           0
     25823 TIP3     2862     TIP3     H1       HT       0.417000       1.00800           0
     25824 TIP3     2862     TIP3     H2       HT       0.417000       1.00800           0
     25825 TIP3     2863     TIP3     OH2      OT      -0.834000       15.9994           0
     25826 TIP3     2863     TIP3     H1       HT       0.417000       1.00800           0
     25827 TIP3     2863     TIP3     H2       HT       0.417000       1.00800           0
     25828 TIP3     2864     TIP3     OH2      OT      -0.834000       15.9994           0
     25829 TIP3     2864     TIP3     H1       HT       0.417000       1.00800           0
     25830 TIP3     2864     TIP3     H2       HT       0.417000       1.00800           0
     25831 TIP3     2865     TIP3     OH2      OT      -0.834000       15.9994           0
     25832 TIP3     2865     TIP3     H1       HT       0.417000       1.00800           0
     25833 TIP3     2865     TIP3     H2       HT       0.417000       1.00800           0
     25834 TIP3     2866     TIP3     OH2      OT      -0.834000       15.9994           0
     25835 TIP3     2866     TIP3     H1       HT       0.417000       1.00800           0
     25836 TIP3     2866     TIP3     H2       HT       0.417000       1.00800           0
     25837 TIP3     2867     TIP3     OH2      OT      -0.834000       15.9994           0
     25838 TIP3     2867     TIP3     H1       HT       0.417000       1.00800           0
     25839 TIP3     2867     TIP3     H2       HT       0.417000       1.00800           0
     25840 TIP3     2868     TIP3     OH2      OT      -0.834000       15.9994           0
     25841 TIP3     2868     TIP3     H1       HT       0.417000       1.00800           0
     25842 TIP3     2868     TIP3     H2       HT       0.417000       1.00800           0
     25843 TIP3     2869     TIP3     OH2      OT      -0.834000       15.9994           0
     25844 TIP3     2869     TIP3     H1       HT       0.417000       1.00800           0
     25845 TIP3     2869     TIP3     H2       HT       0.417000       1.00800           0
     25846 TIP3     2870     TIP3     OH2      OT      -0.834000       15.9994           0
     25847 TIP3     2870     TIP3     H1       HT       0.417000       1.00800           0
     25848 TIP3     2870     TIP3     H2       HT       0.417000       1.00800           0
     25849 TIP3     2871     TIP3     OH2      OT      -0.834000       15.9994           0
     25850 TIP3     2871     TIP3     H1       HT       0.417000       1.00800           0
     25851 TIP3     2871     TIP3     H2       HT       0.417000       1.00800           0
     25852 TIP3     2872     TIP3     OH2      OT      -0.834000       15.9994           0
     25853 TIP3     2872     TIP3     H1       HT       0.417000       1.00800           0
     25854 TIP3     2872     TIP3     H2       HT       0.417000       1.00800           0
     25855 TIP3     2873     TIP3     OH2      OT      -0.834000       15.9994           0
     25856 TIP3     2873     TIP3     H1       HT       0.417000       1.00800           0
     25857 TIP3     2873     TIP3     H2       HT       0.417000       1.00800           0
     25858 TIP3     2874     TIP3     OH2      OT      -0.834000       15.9994           0
     25859 TIP3     2874     TIP3     H1       HT       0.417000       1.00800           0
     25860 TIP3     2874     TIP3     H2       HT       0.417000       1.00800           0
     25861 TIP3     2875     TIP3     OH2      OT      -0.834000       15.9994           0
     25862 TIP3     2875     TIP3     H1       HT       0.417000       1.00800           0
     25863 TIP3     2875     TIP3     H2       HT       0.417000       1.00800           0
     25864 TIP3     2876     TIP3     OH2      OT      -0.834000       15.9994           0
     25865 TIP3     2876     TIP3     H1       HT       0.417000       1.00800           0
     25866 TIP3     2876     TIP3     H2       HT       0.417000       1.00800           0
     25867 TIP3     2877     TIP3     OH2      OT      -0.834000       15.9994           0
     25868 TIP3     2877     TIP3     H1       HT       0.417000       1.00800           0
     25869 TIP3     2877     TIP3     H2       HT       0.417000       1.00800           0
     25870 TIP3     2878     TIP3     OH2      OT      -0.834000       15.9994           0
     25871 TIP3     2878     TIP3     H1       HT       0.417000       1.00800           0
     25872 TIP3     2878     TIP3     H2       HT       0.417000       1.00800           0
     25873 TIP3     2879     TIP3     OH2      OT      -0.834000       15.9994           0
     25874 TIP3     2879     TIP3     H1       HT       0.417000       1.00800           0
     25875 TIP3     2879     TIP3     H2       HT       0.417000       1.00800           0
     25876 TIP3     2880     TIP3     OH2      OT      -0.834000       15.9994           0
     25877 TIP3     2880     TIP3     H1       HT       0.417000       1.00800           0
     25878 TIP3     2880     TIP3     H2       HT       0.417000       1.00800           0
     25879 TIP3     2881     TIP3     OH2      OT      -0.834000       15.9994           0
     25880 TIP3     2881     TIP3     H1       HT       0.417000       1.00800           0
     25881 TIP3     2881     TIP3     H2       HT       0.417000       1.00800           0
     25882 TIP3     2882     TIP3     OH2      OT      -0.834000       15.9994           0
     25883 TIP3     2882     TIP3     H1       HT       0.417000       1.00800           0
     25884 TIP3     2882     TIP3     H2       HT       0.417000       1.00800           0
     25885 TIP3     2883     TIP3     OH2      OT      -0.834000       15.9994           0
     25886 TIP3     2883     TIP3     H1       HT       0.417000       1.00800           0
     25887 TIP3     2883     TIP3     H2       HT       0.417000       1.00800           0
     25888 TIP3     2884     TIP3     OH2      OT      -0.834000       15.9994           0
     25889 TIP3     2884     TIP3     H1       HT       0.417000       1.00800           0
     25890 TIP3     2884     TIP3     H2       HT       0.417000       1.00800           0
     25891 TIP3     2885     TIP3     OH2      OT      -0.834000       15.9994           0
     25892 TIP3     2885     TIP3     H1       HT       0.417000       1.00800           0
     25893 TIP3     2885     TIP3     H2       HT       0.417000       1.00800           0
     25894 TIP3     2886     TIP3     OH2      OT      -0.834000       15.9994           0
     25895 TIP3     2886     TIP3     H1       HT       0.417000       1.00800           0
     25896 TIP3     2886     TIP3     H2       HT       0.417000       1.00800           0
     25897 TIP3     2887     TIP3     OH2      OT      -0.834000       15.9994           0
     25898 TIP3     2887     TIP3     H1       HT       0.417000       1.00800           0
     25899 TIP3     2887     TIP3     H2       HT       0.417000       1.00800           0
     25900 TIP3     2888     TIP3     OH2      OT      -0.834000       15.9994           0
     25901 TIP3     2888     TIP3     H1       HT       0.417000       1.00800           0
     25902 TIP3     2888     TIP3     H2       HT       0.417000       1.00800           0
     25903 TIP3     2889     TIP3     OH2      OT      -0.834000       15.9994           0
     25904 TIP3     2889     TIP3     H1       HT       0.417000       1.00800           0
     25905 TIP3     2889     TIP3     H2       HT       0.417000       1.00800           0
     25906 TIP3     2890     TIP3     OH2      OT      -0.834000       15.9994           0
     25907 TIP3     2890     TIP3     H1       HT       0.417000       1.00800           0
     25908 TIP3     2890     TIP3     H2       HT       0.417000       1.00800           0
     25909 TIP3     2891     TIP3     OH2      OT      -0.834000       15.9994           0
     25910 TIP3     2891     TIP3     H1       HT       0.417000       1.00800           0
     25911 TIP3     2891     TIP3     H2       HT       0.417000       1.00800           0
     25912 TIP3     2892     TIP3     OH2      OT      -0.834000       15.9994           0
     25913 TIP3     2892     TIP3     H1       HT       0.417000       1.00800           0
     25914 TIP3     2892     TIP3     H2       HT       0.417000       1.00800           0
     25915 TIP3     2893     TIP3     OH2      OT      -0.834000       15.9994           0
     25916 TIP3     2893     TIP3     H1       HT       0.417000       1.00800           0
     25917 TIP3     2893     TIP3     H2       HT       0.417000       1.00800           0
     25918 TIP3     2894     TIP3     OH2      OT      -0.834000       15.9994           0
     25919 TIP3     2894     TIP3     H1       HT       0.417000       1.00800           0
     25920 TIP3     2894     TIP3     H2       HT       0.417000       1.00800           0
     25921 TIP3     2895     TIP3     OH2      OT      -0.834000       15.9994           0
     25922 TIP3     2895     TIP3     H1       HT       0.417000       1.00800           0
     25923 TIP3     2895     TIP3     H2       HT       0.417000       1.00800           0
     25924 TIP3     2896     TIP3     OH2      OT      -0.834000       15.9994           0
     25925 TIP3     2896     TIP3     H1       HT       0.417000       1.00800           0
     25926 TIP3     2896     TIP3     H2       HT       0.417000       1.00800           0
     25927 TIP3     2897     TIP3     OH2      OT      -0.834000       15.9994           0
     25928 TIP3     2897     TIP3     H1       HT       0.417000       1.00800           0
     25929 TIP3     2897     TIP3     H2       HT       0.417000       1.00800           0
     25930 TIP3     2898     TIP3     OH2      OT      -0.834000       15.9994           0
     25931 TIP3     2898     TIP3     H1       HT       0.417000       1.00800           0
     25932 TIP3     2898     TIP3     H2       HT       0.417000       1.00800           0
     25933 TIP3     2899     TIP3     OH2      OT      -0.834000       15.9994           0
     25934 TIP3     2899     TIP3     H1       HT       0.417000       1.00800           0
     25935 TIP3     2899     TIP3     H2       HT       0.417000       1.00800           0
     25936 TIP3     2900     TIP3     OH2      OT      -0.834000       15.9994           0
     25937 TIP3     2900     TIP3     H1       HT       0.417000       1.00800           0
     25938 TIP3     2900     TIP3     H2       HT       0.417000       1.00800           0
     25939 TIP3     2901     TIP3     OH2      OT      -0.834000       15.9994           0
     25940 TIP3     2901     TIP3     H1       HT       0.417000       1.00800           0
     25941 TIP3     2901     TIP3     H2       HT       0.417000       1.00800           0
     25942 TIP3     2902     TIP3     OH2      OT      -0.834000       15.9994           0
     25943 TIP3     2902     TIP3     H1       HT       0.417000       1.00800           0
     25944 TIP3     2902     TIP3     H2       HT       0.417000       1.00800           0
     25945 TIP3     2903     TIP3     OH2      OT      -0.834000       15.9994           0
     25946 TIP3     2903     TIP3     H1       HT       0.417000       1.00800           0
     25947 TIP3     2903     TIP3     H2       HT       0.417000       1.00800           0
     25948 TIP3     2904     TIP3     OH2      OT      -0.834000       15.9994           0
     25949 TIP3     2904     TIP3     H1       HT       0.417000       1.00800           0
     25950 TIP3     2904     TIP3     H2       HT       0.417000       1.00800           0
     25951 TIP3     2905     TIP3     OH2      OT      -0.834000       15.9994           0
     25952 TIP3     2905     TIP3     H1       HT       0.417000       1.00800           0
     25953 TIP3     2905     TIP3     H2       HT       0.417000       1.00800           0
     25954 TIP3     2906     TIP3     OH2      OT      -0.834000       15.9994           0
     25955 TIP3     2906     TIP3     H1       HT       0.417000       1.00800           0
     25956 TIP3     2906     TIP3     H2       HT       0.417000       1.00800           0
     25957 TIP3     2907     TIP3     OH2      OT      -0.834000       15.9994           0
     25958 TIP3     2907     TIP3     H1       HT       0.417000       1.00800           0
     25959 TIP3     2907     TIP3     H2       HT       0.417000       1.00800           0
     25960 TIP3     2908     TIP3     OH2      OT      -0.834000       15.9994           0
     25961 TIP3     2908     TIP3     H1       HT       0.417000       1.00800           0
     25962 TIP3     2908     TIP3     H2       HT       0.417000       1.00800           0
     25963 TIP3     2909     TIP3     OH2      OT      -0.834000       15.9994           0
     25964 TIP3     2909     TIP3     H1       HT       0.417000       1.00800           0
     25965 TIP3     2909     TIP3     H2       HT       0.417000       1.00800           0
     25966 TIP3     2910     TIP3     OH2      OT      -0.834000       15.9994           0
     25967 TIP3     2910     TIP3     H1       HT       0.417000       1.00800           0
     25968 TIP3     2910     TIP3     H2       HT       0.417000       1.00800           0
     25969 TIP3     2911     TIP3     OH2      OT      -0.834000       15.9994           0
     25970 TIP3     2911     TIP3     H1       HT       0.417000       1.00800           0
     25971 TIP3     2911     TIP3     H2       HT       0.417000       1.00800           0
     25972 TIP3     2912     TIP3     OH2      OT      -0.834000       15.9994           0
     25973 TIP3     2912     TIP3     H1       HT       0.417000       1.00800           0
     25974 TIP3     2912     TIP3     H2       HT       0.417000       1.00800           0
     25975 TIP3     2913     TIP3     OH2      OT      -0.834000       15.9994           0
     25976 TIP3     2913     TIP3     H1       HT       0.417000       1.00800           0
     25977 TIP3     2913     TIP3     H2       HT       0.417000       1.00800           0
     25978 TIP3     2914     TIP3     OH2      OT      -0.834000       15.9994           0
     25979 TIP3     2914     TIP3     H1       HT       0.417000       1.00800           0
     25980 TIP3     2914     TIP3     H2       HT       0.417000       1.00800           0
     25981 TIP3     2915     TIP3     OH2      OT      -0.834000       15.9994           0
     25982 TIP3     2915     TIP3     H1       HT       0.417000       1.00800           0
     25983 TIP3     2915     TIP3     H2       HT       0.417000       1.00800           0
     25984 TIP3     2916     TIP3     OH2      OT      -0.834000       15.9994           0
     25985 TIP3     2916     TIP3     H1       HT       0.417000       1.00800           0
     25986 TIP3     2916     TIP3     H2       HT       0.417000       1.00800           0
     25987 TIP3     2917     TIP3     OH2      OT      -0.834000       15.9994           0
     25988 TIP3     2917     TIP3     H1       HT       0.417000       1.00800           0
     25989 TIP3     2917     TIP3     H2       HT       0.417000       1.00800           0
     25990 TIP3     2918     TIP3     OH2      OT      -0.834000       15.9994           0
     25991 TIP3     2918     TIP3     H1       HT       0.417000       1.00800           0
     25992 TIP3     2918     TIP3     H2       HT       0.417000       1.00800           0
     25993 TIP3     2919     TIP3     OH2      OT      -0.834000       15.9994           0
     25994 TIP3     2919     TIP3     H1       HT       0.417000       1.00800           0
     25995 TIP3     2919     TIP3     H2       HT       0.417000       1.00800           0
     25996 TIP3     2920     TIP3     OH2      OT      -0.834000       15.9994           0
     25997 TIP3     2920     TIP3     H1       HT       0.417000       1.00800           0
     25998 TIP3     2920     TIP3     H2       HT       0.417000       1.00800           0
     25999 TIP3     2921     TIP3     OH2      OT      -0.834000       15.9994           0
     26000 TIP3     2921     TIP3     H1       HT       0.417000       1.00800           0
     26001 TIP3     2921     TIP3     H2       HT       0.417000       1.00800           0
     26002 TIP3     2922     TIP3     OH2      OT      -0.834000       15.9994           0
     26003 TIP3     2922     TIP3     H1       HT       0.417000       1.00800           0
     26004 TIP3     2922     TIP3     H2       HT       0.417000       1.00800           0
     26005 TIP3     2923     TIP3     OH2      OT      -0.834000       15.9994           0
     26006 TIP3     2923     TIP3     H1       HT       0.417000       1.00800           0
     26007 TIP3     2923     TIP3     H2       HT       0.417000       1.00800           0
     26008 TIP3     2924     TIP3     OH2      OT      -0.834000       15.9994           0
     26009 TIP3     2924     TIP3     H1       HT       0.417000       1.00800           0
     26010 TIP3     2924     TIP3     H2       HT       0.417000       1.00800           0
     26011 TIP3     2925     TIP3     OH2      OT      -0.834000       15.9994           0
     26012 TIP3     2925     TIP3     H1       HT       0.417000       1.00800           0
     26013 TIP3     2925     TIP3     H2       HT       0.417000       1.00800           0
     26014 TIP3     2926     TIP3     OH2      OT      -0.834000       15.9994           0
     26015 TIP3     2926     TIP3     H1       HT       0.417000       1.00800           0
     26016 TIP3     2926     TIP3     H2       HT       0.417000       1.00800           0
     26017 TIP3     2927     TIP3     OH2      OT      -0.834000       15.9994           0
     26018 TIP3     2927     TIP3     H1       HT       0.417000       1.00800           0
     26019 TIP3     2927     TIP3     H2       HT       0.417000       1.00800           0
     26020 TIP3     2928     TIP3     OH2      OT      -0.834000       15.9994           0
     26021 TIP3     2928     TIP3     H1       HT       0.417000       1.00800           0
     26022 TIP3     2928     TIP3     H2       HT       0.417000       1.00800           0
     26023 TIP3     2929     TIP3     OH2      OT      -0.834000       15.9994           0
     26024 TIP3     2929     TIP3     H1       HT       0.417000       1.00800           0
     26025 TIP3     2929     TIP3     H2       HT       0.417000       1.00800           0
     26026 TIP3     2930     TIP3     OH2      OT      -0.834000       15.9994           0
     26027 TIP3     2930     TIP3     H1       HT       0.417000       1.00800           0
     26028 TIP3     2930     TIP3     H2       HT       0.417000       1.00800           0
     26029 TIP3     2931     TIP3     OH2      OT      -0.834000       15.9994           0
     26030 TIP3     2931     TIP3     H1       HT       0.417000       1.00800           0
     26031 TIP3     2931     TIP3     H2       HT       0.417000       1.00800           0
     26032 TIP3     2932     TIP3     OH2      OT      -0.834000       15.9994           0
     26033 TIP3     2932     TIP3     H1       HT       0.417000       1.00800           0
     26034 TIP3     2932     TIP3     H2       HT       0.417000       1.00800           0
     26035 TIP3     2933     TIP3     OH2      OT      -0.834000       15.9994           0
     26036 TIP3     2933     TIP3     H1       HT       0.417000       1.00800           0
     26037 TIP3     2933     TIP3     H2       HT       0.417000       1.00800           0
     26038 TIP3     2934     TIP3     OH2      OT      -0.834000       15.9994           0
     26039 TIP3     2934     TIP3     H1       HT       0.417000       1.00800           0
     26040 TIP3     2934     TIP3     H2       HT       0.417000       1.00800           0
     26041 TIP3     2935     TIP3     OH2      OT      -0.834000       15.9994           0
     26042 TIP3     2935     TIP3     H1       HT       0.417000       1.00800           0
     26043 TIP3     2935     TIP3     H2       HT       0.417000       1.00800           0
     26044 TIP3     2936     TIP3     OH2      OT      -0.834000       15.9994           0
     26045 TIP3     2936     TIP3     H1       HT       0.417000       1.00800           0
     26046 TIP3     2936     TIP3     H2       HT       0.417000       1.00800           0
     26047 TIP3     2937     TIP3     OH2      OT      -0.834000       15.9994           0
     26048 TIP3     2937     TIP3     H1       HT       0.417000       1.00800           0
     26049 TIP3     2937     TIP3     H2       HT       0.417000       1.00800           0
     26050 TIP3     2938     TIP3     OH2      OT      -0.834000       15.9994           0
     26051 TIP3     2938     TIP3     H1       HT       0.417000       1.00800           0
     26052 TIP3     2938     TIP3     H2       HT       0.417000       1.00800           0
     26053 TIP3     2939     TIP3     OH2      OT      -0.834000       15.9994           0
     26054 TIP3     2939     TIP3     H1       HT       0.417000       1.00800           0
     26055 TIP3     2939     TIP3     H2       HT       0.417000       1.00800           0
     26056 TIP3     2940     TIP3     OH2      OT      -0.834000       15.9994           0
     26057 TIP3     2940     TIP3     H1       HT       0.417000       1.00800           0
     26058 TIP3     2940     TIP3     H2       HT       0.417000       1.00800           0
     26059 TIP3     2941     TIP3     OH2      OT      -0.834000       15.9994           0
     26060 TIP3     2941     TIP3     H1       HT       0.417000       1.00800           0
     26061 TIP3     2941     TIP3     H2       HT       0.417000       1.00800           0
     26062 TIP3     2942     TIP3     OH2      OT      -0.834000       15.9994           0
     26063 TIP3     2942     TIP3     H1       HT       0.417000       1.00800           0
     26064 TIP3     2942     TIP3     H2       HT       0.417000       1.00800           0
     26065 TIP3     2943     TIP3     OH2      OT      -0.834000       15.9994           0
     26066 TIP3     2943     TIP3     H1       HT       0.417000       1.00800           0
     26067 TIP3     2943     TIP3     H2       HT       0.417000       1.00800           0
     26068 TIP3     2944     TIP3     OH2      OT      -0.834000       15.9994           0
     26069 TIP3     2944     TIP3     H1       HT       0.417000       1.00800           0
     26070 TIP3     2944     TIP3     H2       HT       0.417000       1.00800           0
     26071 TIP3     2945     TIP3     OH2      OT      -0.834000       15.9994           0
     26072 TIP3     2945     TIP3     H1       HT       0.417000       1.00800           0
     26073 TIP3     2945     TIP3     H2       HT       0.417000       1.00800           0
     26074 TIP3     2946     TIP3     OH2      OT      -0.834000       15.9994           0
     26075 TIP3     2946     TIP3     H1       HT       0.417000       1.00800           0
     26076 TIP3     2946     TIP3     H2       HT       0.417000       1.00800           0
     26077 TIP3     2947     TIP3     OH2      OT      -0.834000       15.9994           0
     26078 TIP3     2947     TIP3     H1       HT       0.417000       1.00800           0
     26079 TIP3     2947     TIP3     H2       HT       0.417000       1.00800           0
     26080 TIP3     2948     TIP3     OH2      OT      -0.834000       15.9994           0
     26081 TIP3     2948     TIP3     H1       HT       0.417000       1.00800           0
     26082 TIP3     2948     TIP3     H2       HT       0.417000       1.00800           0
     26083 TIP3     2949     TIP3     OH2      OT      -0.834000       15.9994           0
     26084 TIP3     2949     TIP3     H1       HT       0.417000       1.00800           0
     26085 TIP3     2949     TIP3     H2       HT       0.417000       1.00800           0
     26086 TIP3     2950     TIP3     OH2      OT      -0.834000       15.9994           0
     26087 TIP3     2950     TIP3     H1       HT       0.417000       1.00800           0
     26088 TIP3     2950     TIP3     H2       HT       0.417000       1.00800           0
     26089 TIP3     2951     TIP3     OH2      OT      -0.834000       15.9994           0
     26090 TIP3     2951     TIP3     H1       HT       0.417000       1.00800           0
     26091 TIP3     2951     TIP3     H2       HT       0.417000       1.00800           0
     26092 TIP3     2952     TIP3     OH2      OT      -0.834000       15.9994           0
     26093 TIP3     2952     TIP3     H1       HT       0.417000       1.00800           0
     26094 TIP3     2952     TIP3     H2       HT       0.417000       1.00800           0
     26095 TIP3     2953     TIP3     OH2      OT      -0.834000       15.9994           0
     26096 TIP3     2953     TIP3     H1       HT       0.417000       1.00800           0
     26097 TIP3     2953     TIP3     H2       HT       0.417000       1.00800           0
     26098 TIP3     2954     TIP3     OH2      OT      -0.834000       15.9994           0
     26099 TIP3     2954     TIP3     H1       HT       0.417000       1.00800           0
     26100 TIP3     2954     TIP3     H2       HT       0.417000       1.00800           0
     26101 TIP3     2955     TIP3     OH2      OT      -0.834000       15.9994           0
     26102 TIP3     2955     TIP3     H1       HT       0.417000       1.00800           0
     26103 TIP3     2955     TIP3     H2       HT       0.417000       1.00800           0
     26104 TIP3     2956     TIP3     OH2      OT      -0.834000       15.9994           0
     26105 TIP3     2956     TIP3     H1       HT       0.417000       1.00800           0
     26106 TIP3     2956     TIP3     H2       HT       0.417000       1.00800           0
     26107 TIP3     2957     TIP3     OH2      OT      -0.834000       15.9994           0
     26108 TIP3     2957     TIP3     H1       HT       0.417000       1.00800           0
     26109 TIP3     2957     TIP3     H2       HT       0.417000       1.00800           0
     26110 TIP3     2958     TIP3     OH2      OT      -0.834000       15.9994           0
     26111 TIP3     2958     TIP3     H1       HT       0.417000       1.00800           0
     26112 TIP3     2958     TIP3     H2       HT       0.417000       1.00800           0
     26113 TIP3     2959     TIP3     OH2      OT      -0.834000       15.9994           0
     26114 TIP3     2959     TIP3     H1       HT       0.417000       1.00800           0
     26115 TIP3     2959     TIP3     H2       HT       0.417000       1.00800           0
     26116 TIP3     2960     TIP3     OH2      OT      -0.834000       15.9994           0
     26117 TIP3     2960     TIP3     H1       HT       0.417000       1.00800           0
     26118 TIP3     2960     TIP3     H2       HT       0.417000       1.00800           0
     26119 TIP3     2961     TIP3     OH2      OT      -0.834000       15.9994           0
     26120 TIP3     2961     TIP3     H1       HT       0.417000       1.00800           0
     26121 TIP3     2961     TIP3     H2       HT       0.417000       1.00800           0
     26122 TIP3     2962     TIP3     OH2      OT      -0.834000       15.9994           0
     26123 TIP3     2962     TIP3     H1       HT       0.417000       1.00800           0
     26124 TIP3     2962     TIP3     H2       HT       0.417000       1.00800           0
     26125 TIP3     2963     TIP3     OH2      OT      -0.834000       15.9994           0
     26126 TIP3     2963     TIP3     H1       HT       0.417000       1.00800           0
     26127 TIP3     2963     TIP3     H2       HT       0.417000       1.00800           0
     26128 TIP3     2964     TIP3     OH2      OT      -0.834000       15.9994           0
     26129 TIP3     2964     TIP3     H1       HT       0.417000       1.00800           0
     26130 TIP3     2964     TIP3     H2       HT       0.417000       1.00800           0
     26131 TIP3     2965     TIP3     OH2      OT      -0.834000       15.9994           0
     26132 TIP3     2965     TIP3     H1       HT       0.417000       1.00800           0
     26133 TIP3     2965     TIP3     H2       HT       0.417000       1.00800           0
     26134 TIP3     2966     TIP3     OH2      OT      -0.834000       15.9994           0
     26135 TIP3     2966     TIP3     H1       HT       0.417000       1.00800           0
     26136 TIP3     2966     TIP3     H2       HT       0.417000       1.00800           0
     26137 TIP3     2967     TIP3     OH2      OT      -0.834000       15.9994           0
     26138 TIP3     2967     TIP3     H1       HT       0.417000       1.00800           0
     26139 TIP3     2967     TIP3     H2       HT       0.417000       1.00800           0
     26140 TIP3     2968     TIP3     OH2      OT      -0.834000       15.9994           0
     26141 TIP3     2968     TIP3     H1       HT       0.417000       1.00800           0
     26142 TIP3     2968     TIP3     H2       HT       0.417000       1.00800           0
     26143 TIP3     2969     TIP3     OH2      OT      -0.834000       15.9994           0
     26144 TIP3     2969     TIP3     H1       HT       0.417000       1.00800           0
     26145 TIP3     2969     TIP3     H2       HT       0.417000       1.00800           0
     26146 TIP3     2970     TIP3     OH2      OT      -0.834000       15.9994           0
     26147 TIP3     2970     TIP3     H1       HT       0.417000       1.00800           0
     26148 TIP3     2970     TIP3     H2       HT       0.417000       1.00800           0
     26149 TIP3     2971     TIP3     OH2      OT      -0.834000       15.9994           0
     26150 TIP3     2971     TIP3     H1       HT       0.417000       1.00800           0
     26151 TIP3     2971     TIP3     H2       HT       0.417000       1.00800           0
     26152 TIP3     2972     TIP3     OH2      OT      -0.834000       15.9994           0
     26153 TIP3     2972     TIP3     H1       HT       0.417000       1.00800           0
     26154 TIP3     2972     TIP3     H2       HT       0.417000       1.00800           0
     26155 TIP3     2973     TIP3     OH2      OT      -0.834000       15.9994           0
     26156 TIP3     2973     TIP3     H1       HT       0.417000       1.00800           0
     26157 TIP3     2973     TIP3     H2       HT       0.417000       1.00800           0
     26158 TIP3     2974     TIP3     OH2      OT      -0.834000       15.9994           0
     26159 TIP3     2974     TIP3     H1       HT       0.417000       1.00800           0
     26160 TIP3     2974     TIP3     H2       HT       0.417000       1.00800           0
     26161 TIP3     2975     TIP3     OH2      OT      -0.834000       15.9994           0
     26162 TIP3     2975     TIP3     H1       HT       0.417000       1.00800           0
     26163 TIP3     2975     TIP3     H2       HT       0.417000       1.00800           0
     26164 TIP3     2976     TIP3     OH2      OT      -0.834000       15.9994           0
     26165 TIP3     2976     TIP3     H1       HT       0.417000       1.00800           0
     26166 TIP3     2976     TIP3     H2       HT       0.417000       1.00800           0
     26167 TIP3     2977     TIP3     OH2      OT      -0.834000       15.9994           0
     26168 TIP3     2977     TIP3     H1       HT       0.417000       1.00800           0
     26169 TIP3     2977     TIP3     H2       HT       0.417000       1.00800           0
     26170 TIP3     2978     TIP3     OH2      OT      -0.834000       15.9994           0
     26171 TIP3     2978     TIP3     H1       HT       0.417000       1.00800           0
     26172 TIP3     2978     TIP3     H2       HT       0.417000       1.00800           0
     26173 TIP3     2979     TIP3     OH2      OT      -0.834000       15.9994           0
     26174 TIP3     2979     TIP3     H1       HT       0.417000       1.00800           0
     26175 TIP3     2979     TIP3     H2       HT       0.417000       1.00800           0
     26176 TIP3     2980     TIP3     OH2      OT      -0.834000       15.9994           0
     26177 TIP3     2980     TIP3     H1       HT       0.417000       1.00800           0
     26178 TIP3     2980     TIP3     H2       HT       0.417000       1.00800           0
     26179 TIP3     2981     TIP3     OH2      OT      -0.834000       15.9994           0
     26180 TIP3     2981     TIP3     H1       HT       0.417000       1.00800           0
     26181 TIP3     2981     TIP3     H2       HT       0.417000       1.00800           0
     26182 TIP3     2982     TIP3     OH2      OT      -0.834000       15.9994           0
     26183 TIP3     2982     TIP3     H1       HT       0.417000       1.00800           0
     26184 TIP3     2982     TIP3     H2       HT       0.417000       1.00800           0
     26185 TIP3     2983     TIP3     OH2      OT      -0.834000       15.9994           0
     26186 TIP3     2983     TIP3     H1       HT       0.417000       1.00800           0
     26187 TIP3     2983     TIP3     H2       HT       0.417000       1.00800           0
     26188 TIP3     2984     TIP3     OH2      OT      -0.834000       15.9994           0
     26189 TIP3     2984     TIP3     H1       HT       0.417000       1.00800           0
     26190 TIP3     2984     TIP3     H2       HT       0.417000       1.00800           0
     26191 TIP3     2985     TIP3     OH2      OT      -0.834000       15.9994           0
     26192 TIP3     2985     TIP3     H1       HT       0.417000       1.00800           0
     26193 TIP3     2985     TIP3     H2       HT       0.417000       1.00800           0
     26194 TIP3     2986     TIP3     OH2      OT      -0.834000       15.9994           0
     26195 TIP3     2986     TIP3     H1       HT       0.417000       1.00800           0
     26196 TIP3     2986     TIP3     H2       HT       0.417000       1.00800           0
     26197 TIP3     2987     TIP3     OH2      OT      -0.834000       15.9994           0
     26198 TIP3     2987     TIP3     H1       HT       0.417000       1.00800           0
     26199 TIP3     2987     TIP3     H2       HT       0.417000       1.00800           0
     26200 TIP3     2988     TIP3     OH2      OT      -0.834000       15.9994           0
     26201 TIP3     2988     TIP3     H1       HT       0.417000       1.00800           0
     26202 TIP3     2988     TIP3     H2       HT       0.417000       1.00800           0
     26203 TIP3     2989     TIP3     OH2      OT      -0.834000       15.9994           0
     26204 TIP3     2989     TIP3     H1       HT       0.417000       1.00800           0
     26205 TIP3     2989     TIP3     H2       HT       0.417000       1.00800           0
     26206 TIP3     2990     TIP3     OH2      OT      -0.834000       15.9994           0
     26207 TIP3     2990     TIP3     H1       HT       0.417000       1.00800           0
     26208 TIP3     2990     TIP3     H2       HT       0.417000       1.00800           0
     26209 TIP3     2991     TIP3     OH2      OT      -0.834000       15.9994           0
     26210 TIP3     2991     TIP3     H1       HT       0.417000       1.00800           0
     26211 TIP3     2991     TIP3     H2       HT       0.417000       1.00800           0
     26212 TIP3     2992     TIP3     OH2      OT      -0.834000       15.9994           0
     26213 TIP3     2992     TIP3     H1       HT       0.417000       1.00800           0
     26214 TIP3     2992     TIP3     H2       HT       0.417000       1.00800           0
     26215 TIP3     2993     TIP3     OH2      OT      -0.834000       15.9994           0
     26216 TIP3     2993     TIP3     H1       HT       0.417000       1.00800           0
     26217 TIP3     2993     TIP3     H2       HT       0.417000       1.00800           0
     26218 TIP3     2994     TIP3     OH2      OT      -0.834000       15.9994           0
     26219 TIP3     2994     TIP3     H1       HT       0.417000       1.00800           0
     26220 TIP3     2994     TIP3     H2       HT       0.417000       1.00800           0
     26221 TIP3     2995     TIP3     OH2      OT      -0.834000       15.9994           0
     26222 TIP3     2995     TIP3     H1       HT       0.417000       1.00800           0
     26223 TIP3     2995     TIP3     H2       HT       0.417000       1.00800           0
     26224 TIP3     2996     TIP3     OH2      OT      -0.834000       15.9994           0
     26225 TIP3     2996     TIP3     H1       HT       0.417000       1.00800           0
     26226 TIP3     2996     TIP3     H2       HT       0.417000       1.00800           0
     26227 TIP3     2997     TIP3     OH2      OT      -0.834000       15.9994           0
     26228 TIP3     2997     TIP3     H1       HT       0.417000       1.00800           0
     26229 TIP3     2997     TIP3     H2       HT       0.417000       1.00800           0
     26230 TIP3     2998     TIP3     OH2      OT      -0.834000       15.9994           0
     26231 TIP3     2998     TIP3     H1       HT       0.417000       1.00800           0
     26232 TIP3     2998     TIP3     H2       HT       0.417000       1.00800           0
     26233 TIP3     2999     TIP3     OH2      OT      -0.834000       15.9994           0
     26234 TIP3     2999     TIP3     H1       HT       0.417000       1.00800           0
     26235 TIP3     2999     TIP3     H2       HT       0.417000       1.00800           0
     26236 TIP3     3000     TIP3     OH2      OT      -0.834000       15.9994           0
     26237 TIP3     3000     TIP3     H1       HT       0.417000       1.00800           0
     26238 TIP3     3000     TIP3     H2       HT       0.417000       1.00800           0
     26239 TIP3     3001     TIP3     OH2      OT      -0.834000       15.9994           0
     26240 TIP3     3001     TIP3     H1       HT       0.417000       1.00800           0
     26241 TIP3     3001     TIP3     H2       HT       0.417000       1.00800           0
     26242 TIP3     3002     TIP3     OH2      OT      -0.834000       15.9994           0
     26243 TIP3     3002     TIP3     H1       HT       0.417000       1.00800           0
     26244 TIP3     3002     TIP3     H2       HT       0.417000       1.00800           0
     26245 TIP3     3003     TIP3     OH2      OT      -0.834000       15.9994           0
     26246 TIP3     3003     TIP3     H1       HT       0.417000       1.00800           0
     26247 TIP3     3003     TIP3     H2       HT       0.417000       1.00800           0
     26248 TIP3     3004     TIP3     OH2      OT      -0.834000       15.9994           0
     26249 TIP3     3004     TIP3     H1       HT       0.417000       1.00800           0
     26250 TIP3     3004     TIP3     H2       HT       0.417000       1.00800           0
     26251 TIP3     3005     TIP3     OH2      OT      -0.834000       15.9994           0
     26252 TIP3     3005     TIP3     H1       HT       0.417000       1.00800           0
     26253 TIP3     3005     TIP3     H2       HT       0.417000       1.00800           0
     26254 TIP3     3006     TIP3     OH2      OT      -0.834000       15.9994           0
     26255 TIP3     3006     TIP3     H1       HT       0.417000       1.00800           0
     26256 TIP3     3006     TIP3     H2       HT       0.417000       1.00800           0
     26257 TIP3     3007     TIP3     OH2      OT      -0.834000       15.9994           0
     26258 TIP3     3007     TIP3     H1       HT       0.417000       1.00800           0
     26259 TIP3     3007     TIP3     H2       HT       0.417000       1.00800           0
     26260 TIP3     3008     TIP3     OH2      OT      -0.834000       15.9994           0
     26261 TIP3     3008     TIP3     H1       HT       0.417000       1.00800           0
     26262 TIP3     3008     TIP3     H2       HT       0.417000       1.00800           0
     26263 TIP3     3009     TIP3     OH2      OT      -0.834000       15.9994           0
     26264 TIP3     3009     TIP3     H1       HT       0.417000       1.00800           0
     26265 TIP3     3009     TIP3     H2       HT       0.417000       1.00800           0
     26266 TIP3     3010     TIP3     OH2      OT      -0.834000       15.9994           0
     26267 TIP3     3010     TIP3     H1       HT       0.417000       1.00800           0
     26268 TIP3     3010     TIP3     H2       HT       0.417000       1.00800           0
     26269 TIP3     3011     TIP3     OH2      OT      -0.834000       15.9994           0
     26270 TIP3     3011     TIP3     H1       HT       0.417000       1.00800           0
     26271 TIP3     3011     TIP3     H2       HT       0.417000       1.00800           0
     26272 TIP3     3012     TIP3     OH2      OT      -0.834000       15.9994           0
     26273 TIP3     3012     TIP3     H1       HT       0.417000       1.00800           0
     26274 TIP3     3012     TIP3     H2       HT       0.417000       1.00800           0
     26275 TIP3     3013     TIP3     OH2      OT      -0.834000       15.9994           0
     26276 TIP3     3013     TIP3     H1       HT       0.417000       1.00800           0
     26277 TIP3     3013     TIP3     H2       HT       0.417000       1.00800           0
     26278 TIP3     3014     TIP3     OH2      OT      -0.834000       15.9994           0
     26279 TIP3     3014     TIP3     H1       HT       0.417000       1.00800           0
     26280 TIP3     3014     TIP3     H2       HT       0.417000       1.00800           0
     26281 TIP3     3015     TIP3     OH2      OT      -0.834000       15.9994           0
     26282 TIP3     3015     TIP3     H1       HT       0.417000       1.00800           0
     26283 TIP3     3015     TIP3     H2       HT       0.417000       1.00800           0
     26284 TIP3     3016     TIP3     OH2      OT      -0.834000       15.9994           0
     26285 TIP3     3016     TIP3     H1       HT       0.417000       1.00800           0
     26286 TIP3     3016     TIP3     H2       HT       0.417000       1.00800           0
     26287 TIP3     3017     TIP3     OH2      OT      -0.834000       15.9994           0
     26288 TIP3     3017     TIP3     H1       HT       0.417000       1.00800           0
     26289 TIP3     3017     TIP3     H2       HT       0.417000       1.00800           0
     26290 TIP3     3018     TIP3     OH2      OT      -0.834000       15.9994           0
     26291 TIP3     3018     TIP3     H1       HT       0.417000       1.00800           0
     26292 TIP3     3018     TIP3     H2       HT       0.417000       1.00800           0
     26293 TIP3     3019     TIP3     OH2      OT      -0.834000       15.9994           0
     26294 TIP3     3019     TIP3     H1       HT       0.417000       1.00800           0
     26295 TIP3     3019     TIP3     H2       HT       0.417000       1.00800           0
     26296 TIP3     3020     TIP3     OH2      OT      -0.834000       15.9994           0
     26297 TIP3     3020     TIP3     H1       HT       0.417000       1.00800           0
     26298 TIP3     3020     TIP3     H2       HT       0.417000       1.00800           0
     26299 TIP3     3021     TIP3     OH2      OT      -0.834000       15.9994           0
     26300 TIP3     3021     TIP3     H1       HT       0.417000       1.00800           0
     26301 TIP3     3021     TIP3     H2       HT       0.417000       1.00800           0
     26302 TIP3     3022     TIP3     OH2      OT      -0.834000       15.9994           0
     26303 TIP3     3022     TIP3     H1       HT       0.417000       1.00800           0
     26304 TIP3     3022     TIP3     H2       HT       0.417000       1.00800           0
     26305 TIP3     3023     TIP3     OH2      OT      -0.834000       15.9994           0
     26306 TIP3     3023     TIP3     H1       HT       0.417000       1.00800           0
     26307 TIP3     3023     TIP3     H2       HT       0.417000       1.00800           0
     26308 TIP3     3024     TIP3     OH2      OT      -0.834000       15.9994           0
     26309 TIP3     3024     TIP3     H1       HT       0.417000       1.00800           0
     26310 TIP3     3024     TIP3     H2       HT       0.417000       1.00800           0
     26311 TIP3     3025     TIP3     OH2      OT      -0.834000       15.9994           0
     26312 TIP3     3025     TIP3     H1       HT       0.417000       1.00800           0
     26313 TIP3     3025     TIP3     H2       HT       0.417000       1.00800           0
     26314 TIP3     3026     TIP3     OH2      OT      -0.834000       15.9994           0
     26315 TIP3     3026     TIP3     H1       HT       0.417000       1.00800           0
     26316 TIP3     3026     TIP3     H2       HT       0.417000       1.00800           0
     26317 TIP3     3027     TIP3     OH2      OT      -0.834000       15.9994           0
     26318 TIP3     3027     TIP3     H1       HT       0.417000       1.00800           0
     26319 TIP3     3027     TIP3     H2       HT       0.417000       1.00800           0
     26320 TIP3     3028     TIP3     OH2      OT      -0.834000       15.9994           0
     26321 TIP3     3028     TIP3     H1       HT       0.417000       1.00800           0
     26322 TIP3     3028     TIP3     H2       HT       0.417000       1.00800           0
     26323 TIP3     3029     TIP3     OH2      OT      -0.834000       15.9994           0
     26324 TIP3     3029     TIP3     H1       HT       0.417000       1.00800           0
     26325 TIP3     3029     TIP3     H2       HT       0.417000       1.00800           0
     26326 TIP3     3030     TIP3     OH2      OT      -0.834000       15.9994           0
     26327 TIP3     3030     TIP3     H1       HT       0.417000       1.00800           0
     26328 TIP3     3030     TIP3     H2       HT       0.417000       1.00800           0
     26329 TIP3     3031     TIP3     OH2      OT      -0.834000       15.9994           0
     26330 TIP3     3031     TIP3     H1       HT       0.417000       1.00800           0
     26331 TIP3     3031     TIP3     H2       HT       0.417000       1.00800           0
     26332 TIP3     3032     TIP3     OH2      OT      -0.834000       15.9994           0
     26333 TIP3     3032     TIP3     H1       HT       0.417000       1.00800           0
     26334 TIP3     3032     TIP3     H2       HT       0.417000       1.00800           0
     26335 TIP3     3033     TIP3     OH2      OT      -0.834000       15.9994           0
     26336 TIP3     3033     TIP3     H1       HT       0.417000       1.00800           0
     26337 TIP3     3033     TIP3     H2       HT       0.417000       1.00800           0
     26338 TIP3     3034     TIP3     OH2      OT      -0.834000       15.9994           0
     26339 TIP3     3034     TIP3     H1       HT       0.417000       1.00800           0
     26340 TIP3     3034     TIP3     H2       HT       0.417000       1.00800           0
     26341 TIP3     3035     TIP3     OH2      OT      -0.834000       15.9994           0
     26342 TIP3     3035     TIP3     H1       HT       0.417000       1.00800           0
     26343 TIP3     3035     TIP3     H2       HT       0.417000       1.00800           0
     26344 TIP3     3036     TIP3     OH2      OT      -0.834000       15.9994           0
     26345 TIP3     3036     TIP3     H1       HT       0.417000       1.00800           0
     26346 TIP3     3036     TIP3     H2       HT       0.417000       1.00800           0
     26347 TIP3     3037     TIP3     OH2      OT      -0.834000       15.9994           0
     26348 TIP3     3037     TIP3     H1       HT       0.417000       1.00800           0
     26349 TIP3     3037     TIP3     H2       HT       0.417000       1.00800           0
     26350 TIP3     3038     TIP3     OH2      OT      -0.834000       15.9994           0
     26351 TIP3     3038     TIP3     H1       HT       0.417000       1.00800           0
     26352 TIP3     3038     TIP3     H2       HT       0.417000       1.00800           0
     26353 TIP3     3039     TIP3     OH2      OT      -0.834000       15.9994           0
     26354 TIP3     3039     TIP3     H1       HT       0.417000       1.00800           0
     26355 TIP3     3039     TIP3     H2       HT       0.417000       1.00800           0
     26356 TIP3     3040     TIP3     OH2      OT      -0.834000       15.9994           0
     26357 TIP3     3040     TIP3     H1       HT       0.417000       1.00800           0
     26358 TIP3     3040     TIP3     H2       HT       0.417000       1.00800           0
     26359 TIP3     3041     TIP3     OH2      OT      -0.834000       15.9994           0
     26360 TIP3     3041     TIP3     H1       HT       0.417000       1.00800           0
     26361 TIP3     3041     TIP3     H2       HT       0.417000       1.00800           0
     26362 TIP3     3042     TIP3     OH2      OT      -0.834000       15.9994           0
     26363 TIP3     3042     TIP3     H1       HT       0.417000       1.00800           0
     26364 TIP3     3042     TIP3     H2       HT       0.417000       1.00800           0
     26365 TIP3     3043     TIP3     OH2      OT      -0.834000       15.9994           0
     26366 TIP3     3043     TIP3     H1       HT       0.417000       1.00800           0
     26367 TIP3     3043     TIP3     H2       HT       0.417000       1.00800           0
     26368 TIP3     3044     TIP3     OH2      OT      -0.834000       15.9994           0
     26369 TIP3     3044     TIP3     H1       HT       0.417000       1.00800           0
     26370 TIP3     3044     TIP3     H2       HT       0.417000       1.00800           0
     26371 TIP3     3045     TIP3     OH2      OT      -0.834000       15.9994           0
     26372 TIP3     3045     TIP3     H1       HT       0.417000       1.00800           0
     26373 TIP3     3045     TIP3     H2       HT       0.417000       1.00800           0
     26374 TIP3     3046     TIP3     OH2      OT      -0.834000       15.9994           0
     26375 TIP3     3046     TIP3     H1       HT       0.417000       1.00800           0
     26376 TIP3     3046     TIP3     H2       HT       0.417000       1.00800           0
     26377 TIP3     3047     TIP3     OH2      OT      -0.834000       15.9994           0
     26378 TIP3     3047     TIP3     H1       HT       0.417000       1.00800           0
     26379 TIP3     3047     TIP3     H2       HT       0.417000       1.00800           0
     26380 TIP3     3048     TIP3     OH2      OT      -0.834000       15.9994           0
     26381 TIP3     3048     TIP3     H1       HT       0.417000       1.00800           0
     26382 TIP3     3048     TIP3     H2       HT       0.417000       1.00800           0
     26383 TIP3     3049     TIP3     OH2      OT      -0.834000       15.9994           0
     26384 TIP3     3049     TIP3     H1       HT       0.417000       1.00800           0
     26385 TIP3     3049     TIP3     H2       HT       0.417000       1.00800           0
     26386 TIP3     3050     TIP3     OH2      OT      -0.834000       15.9994           0
     26387 TIP3     3050     TIP3     H1       HT       0.417000       1.00800           0
     26388 TIP3     3050     TIP3     H2       HT       0.417000       1.00800           0
     26389 TIP3     3051     TIP3     OH2      OT      -0.834000       15.9994           0
     26390 TIP3     3051     TIP3     H1       HT       0.417000       1.00800           0
     26391 TIP3     3051     TIP3     H2       HT       0.417000       1.00800           0
     26392 TIP3     3052     TIP3     OH2      OT      -0.834000       15.9994           0
     26393 TIP3     3052     TIP3     H1       HT       0.417000       1.00800           0
     26394 TIP3     3052     TIP3     H2       HT       0.417000       1.00800           0
     26395 TIP3     3053     TIP3     OH2      OT      -0.834000       15.9994           0
     26396 TIP3     3053     TIP3     H1       HT       0.417000       1.00800           0
     26397 TIP3     3053     TIP3     H2       HT       0.417000       1.00800           0
     26398 TIP3     3054     TIP3     OH2      OT      -0.834000       15.9994           0
     26399 TIP3     3054     TIP3     H1       HT       0.417000       1.00800           0
     26400 TIP3     3054     TIP3     H2       HT       0.417000       1.00800           0
     26401 TIP3     3055     TIP3     OH2      OT      -0.834000       15.9994           0
     26402 TIP3     3055     TIP3     H1       HT       0.417000       1.00800           0
     26403 TIP3     3055     TIP3     H2       HT       0.417000       1.00800           0
     26404 TIP3     3056     TIP3     OH2      OT      -0.834000       15.9994           0
     26405 TIP3     3056     TIP3     H1       HT       0.417000       1.00800           0
     26406 TIP3     3056     TIP3     H2       HT       0.417000       1.00800           0
     26407 TIP3     3057     TIP3     OH2      OT      -0.834000       15.9994           0
     26408 TIP3     3057     TIP3     H1       HT       0.417000       1.00800           0
     26409 TIP3     3057     TIP3     H2       HT       0.417000       1.00800           0
     26410 TIP3     3058     TIP3     OH2      OT      -0.834000       15.9994           0
     26411 TIP3     3058     TIP3     H1       HT       0.417000       1.00800           0
     26412 TIP3     3058     TIP3     H2       HT       0.417000       1.00800           0
     26413 TIP3     3059     TIP3     OH2      OT      -0.834000       15.9994           0
     26414 TIP3     3059     TIP3     H1       HT       0.417000       1.00800           0
     26415 TIP3     3059     TIP3     H2       HT       0.417000       1.00800           0
     26416 TIP3     3060     TIP3     OH2      OT      -0.834000       15.9994           0
     26417 TIP3     3060     TIP3     H1       HT       0.417000       1.00800           0
     26418 TIP3     3060     TIP3     H2       HT       0.417000       1.00800           0
     26419 TIP3     3061     TIP3     OH2      OT      -0.834000       15.9994           0
     26420 TIP3     3061     TIP3     H1       HT       0.417000       1.00800           0
     26421 TIP3     3061     TIP3     H2       HT       0.417000       1.00800           0
     26422 TIP3     3062     TIP3     OH2      OT      -0.834000       15.9994           0
     26423 TIP3     3062     TIP3     H1       HT       0.417000       1.00800           0
     26424 TIP3     3062     TIP3     H2       HT       0.417000       1.00800           0
     26425 TIP3     3063     TIP3     OH2      OT      -0.834000       15.9994           0
     26426 TIP3     3063     TIP3     H1       HT       0.417000       1.00800           0
     26427 TIP3     3063     TIP3     H2       HT       0.417000       1.00800           0
     26428 TIP3     3064     TIP3     OH2      OT      -0.834000       15.9994           0
     26429 TIP3     3064     TIP3     H1       HT       0.417000       1.00800           0
     26430 TIP3     3064     TIP3     H2       HT       0.417000       1.00800           0
     26431 TIP3     3065     TIP3     OH2      OT      -0.834000       15.9994           0
     26432 TIP3     3065     TIP3     H1       HT       0.417000       1.00800           0
     26433 TIP3     3065     TIP3     H2       HT       0.417000       1.00800           0
     26434 TIP3     3066     TIP3     OH2      OT      -0.834000       15.9994           0
     26435 TIP3     3066     TIP3     H1       HT       0.417000       1.00800           0
     26436 TIP3     3066     TIP3     H2       HT       0.417000       1.00800           0
     26437 TIP3     3067     TIP3     OH2      OT      -0.834000       15.9994           0
     26438 TIP3     3067     TIP3     H1       HT       0.417000       1.00800           0
     26439 TIP3     3067     TIP3     H2       HT       0.417000       1.00800           0
     26440 TIP3     3068     TIP3     OH2      OT      -0.834000       15.9994           0
     26441 TIP3     3068     TIP3     H1       HT       0.417000       1.00800           0
     26442 TIP3     3068     TIP3     H2       HT       0.417000       1.00800           0
     26443 TIP3     3069     TIP3     OH2      OT      -0.834000       15.9994           0
     26444 TIP3     3069     TIP3     H1       HT       0.417000       1.00800           0
     26445 TIP3     3069     TIP3     H2       HT       0.417000       1.00800           0
     26446 TIP3     3070     TIP3     OH2      OT      -0.834000       15.9994           0
     26447 TIP3     3070     TIP3     H1       HT       0.417000       1.00800           0
     26448 TIP3     3070     TIP3     H2       HT       0.417000       1.00800           0
     26449 TIP3     3071     TIP3     OH2      OT      -0.834000       15.9994           0
     26450 TIP3     3071     TIP3     H1       HT       0.417000       1.00800           0
     26451 TIP3     3071     TIP3     H2       HT       0.417000       1.00800           0
     26452 TIP3     3072     TIP3     OH2      OT      -0.834000       15.9994           0
     26453 TIP3     3072     TIP3     H1       HT       0.417000       1.00800           0
     26454 TIP3     3072     TIP3     H2       HT       0.417000       1.00800           0
     26455 TIP3     3073     TIP3     OH2      OT      -0.834000       15.9994           0
     26456 TIP3     3073     TIP3     H1       HT       0.417000       1.00800           0
     26457 TIP3     3073     TIP3     H2       HT       0.417000       1.00800           0
     26458 TIP3     3074     TIP3     OH2      OT      -0.834000       15.9994           0
     26459 TIP3     3074     TIP3     H1       HT       0.417000       1.00800           0
     26460 TIP3     3074     TIP3     H2       HT       0.417000       1.00800           0
     26461 TIP3     3075     TIP3     OH2      OT      -0.834000       15.9994           0
     26462 TIP3     3075     TIP3     H1       HT       0.417000       1.00800           0
     26463 TIP3     3075     TIP3     H2       HT       0.417000       1.00800           0
     26464 TIP3     3076     TIP3     OH2      OT      -0.834000       15.9994           0
     26465 TIP3     3076     TIP3     H1       HT       0.417000       1.00800           0
     26466 TIP3     3076     TIP3     H2       HT       0.417000       1.00800           0
     26467 TIP3     3077     TIP3     OH2      OT      -0.834000       15.9994           0
     26468 TIP3     3077     TIP3     H1       HT       0.417000       1.00800           0
     26469 TIP3     3077     TIP3     H2       HT       0.417000       1.00800           0
     26470 TIP3     3078     TIP3     OH2      OT      -0.834000       15.9994           0
     26471 TIP3     3078     TIP3     H1       HT       0.417000       1.00800           0
     26472 TIP3     3078     TIP3     H2       HT       0.417000       1.00800           0
     26473 TIP3     3079     TIP3     OH2      OT      -0.834000       15.9994           0
     26474 TIP3     3079     TIP3     H1       HT       0.417000       1.00800           0
     26475 TIP3     3079     TIP3     H2       HT       0.417000       1.00800           0
     26476 TIP3     3080     TIP3     OH2      OT      -0.834000       15.9994           0
     26477 TIP3     3080     TIP3     H1       HT       0.417000       1.00800           0
     26478 TIP3     3080     TIP3     H2       HT       0.417000       1.00800           0
     26479 TIP3     3081     TIP3     OH2      OT      -0.834000       15.9994           0
     26480 TIP3     3081     TIP3     H1       HT       0.417000       1.00800           0
     26481 TIP3     3081     TIP3     H2       HT       0.417000       1.00800           0
     26482 TIP3     3082     TIP3     OH2      OT      -0.834000       15.9994           0
     26483 TIP3     3082     TIP3     H1       HT       0.417000       1.00800           0
     26484 TIP3     3082     TIP3     H2       HT       0.417000       1.00800           0
     26485 TIP3     3083     TIP3     OH2      OT      -0.834000       15.9994           0
     26486 TIP3     3083     TIP3     H1       HT       0.417000       1.00800           0
     26487 TIP3     3083     TIP3     H2       HT       0.417000       1.00800           0
     26488 TIP3     3084     TIP3     OH2      OT      -0.834000       15.9994           0
     26489 TIP3     3084     TIP3     H1       HT       0.417000       1.00800           0
     26490 TIP3     3084     TIP3     H2       HT       0.417000       1.00800           0
     26491 TIP3     3085     TIP3     OH2      OT      -0.834000       15.9994           0
     26492 TIP3     3085     TIP3     H1       HT       0.417000       1.00800           0
     26493 TIP3     3085     TIP3     H2       HT       0.417000       1.00800           0
     26494 TIP3     3086     TIP3     OH2      OT      -0.834000       15.9994           0
     26495 TIP3     3086     TIP3     H1       HT       0.417000       1.00800           0
     26496 TIP3     3086     TIP3     H2       HT       0.417000       1.00800           0
     26497 TIP3     3087     TIP3     OH2      OT      -0.834000       15.9994           0
     26498 TIP3     3087     TIP3     H1       HT       0.417000       1.00800           0
     26499 TIP3     3087     TIP3     H2       HT       0.417000       1.00800           0
     26500 TIP3     3088     TIP3     OH2      OT      -0.834000       15.9994           0
     26501 TIP3     3088     TIP3     H1       HT       0.417000       1.00800           0
     26502 TIP3     3088     TIP3     H2       HT       0.417000       1.00800           0
     26503 TIP3     3089     TIP3     OH2      OT      -0.834000       15.9994           0
     26504 TIP3     3089     TIP3     H1       HT       0.417000       1.00800           0
     26505 TIP3     3089     TIP3     H2       HT       0.417000       1.00800           0
     26506 TIP3     3090     TIP3     OH2      OT      -0.834000       15.9994           0
     26507 TIP3     3090     TIP3     H1       HT       0.417000       1.00800           0
     26508 TIP3     3090     TIP3     H2       HT       0.417000       1.00800           0
     26509 TIP3     3091     TIP3     OH2      OT      -0.834000       15.9994           0
     26510 TIP3     3091     TIP3     H1       HT       0.417000       1.00800           0
     26511 TIP3     3091     TIP3     H2       HT       0.417000       1.00800           0
     26512 TIP3     3092     TIP3     OH2      OT      -0.834000       15.9994           0
     26513 TIP3     3092     TIP3     H1       HT       0.417000       1.00800           0
     26514 TIP3     3092     TIP3     H2       HT       0.417000       1.00800           0
     26515 TIP3     3093     TIP3     OH2      OT      -0.834000       15.9994           0
     26516 TIP3     3093     TIP3     H1       HT       0.417000       1.00800           0
     26517 TIP3     3093     TIP3     H2       HT       0.417000       1.00800           0
     26518 TIP3     3094     TIP3     OH2      OT      -0.834000       15.9994           0
     26519 TIP3     3094     TIP3     H1       HT       0.417000       1.00800           0
     26520 TIP3     3094     TIP3     H2       HT       0.417000       1.00800           0
     26521 TIP3     3095     TIP3     OH2      OT      -0.834000       15.9994           0
     26522 TIP3     3095     TIP3     H1       HT       0.417000       1.00800           0
     26523 TIP3     3095     TIP3     H2       HT       0.417000       1.00800           0
     26524 TIP3     3096     TIP3     OH2      OT      -0.834000       15.9994           0
     26525 TIP3     3096     TIP3     H1       HT       0.417000       1.00800           0
     26526 TIP3     3096     TIP3     H2       HT       0.417000       1.00800           0
     26527 TIP3     3097     TIP3     OH2      OT      -0.834000       15.9994           0
     26528 TIP3     3097     TIP3     H1       HT       0.417000       1.00800           0
     26529 TIP3     3097     TIP3     H2       HT       0.417000       1.00800           0
     26530 TIP3     3098     TIP3     OH2      OT      -0.834000       15.9994           0
     26531 TIP3     3098     TIP3     H1       HT       0.417000       1.00800           0
     26532 TIP3     3098     TIP3     H2       HT       0.417000       1.00800           0
     26533 TIP3     3099     TIP3     OH2      OT      -0.834000       15.9994           0
     26534 TIP3     3099     TIP3     H1       HT       0.417000       1.00800           0
     26535 TIP3     3099     TIP3     H2       HT       0.417000       1.00800           0
     26536 TIP3     3100     TIP3     OH2      OT      -0.834000       15.9994           0
     26537 TIP3     3100     TIP3     H1       HT       0.417000       1.00800           0
     26538 TIP3     3100     TIP3     H2       HT       0.417000       1.00800           0
     26539 TIP3     3101     TIP3     OH2      OT      -0.834000       15.9994           0
     26540 TIP3     3101     TIP3     H1       HT       0.417000       1.00800           0
     26541 TIP3     3101     TIP3     H2       HT       0.417000       1.00800           0
     26542 TIP3     3102     TIP3     OH2      OT      -0.834000       15.9994           0
     26543 TIP3     3102     TIP3     H1       HT       0.417000       1.00800           0
     26544 TIP3     3102     TIP3     H2       HT       0.417000       1.00800           0
     26545 TIP3     3103     TIP3     OH2      OT      -0.834000       15.9994           0
     26546 TIP3     3103     TIP3     H1       HT       0.417000       1.00800           0
     26547 TIP3     3103     TIP3     H2       HT       0.417000       1.00800           0
     26548 TIP3     3104     TIP3     OH2      OT      -0.834000       15.9994           0
     26549 TIP3     3104     TIP3     H1       HT       0.417000       1.00800           0
     26550 TIP3     3104     TIP3     H2       HT       0.417000       1.00800           0
     26551 TIP3     3105     TIP3     OH2      OT      -0.834000       15.9994           0
     26552 TIP3     3105     TIP3     H1       HT       0.417000       1.00800           0
     26553 TIP3     3105     TIP3     H2       HT       0.417000       1.00800           0
     26554 TIP3     3106     TIP3     OH2      OT      -0.834000       15.9994           0
     26555 TIP3     3106     TIP3     H1       HT       0.417000       1.00800           0
     26556 TIP3     3106     TIP3     H2       HT       0.417000       1.00800           0
     26557 TIP3     3107     TIP3     OH2      OT      -0.834000       15.9994           0
     26558 TIP3     3107     TIP3     H1       HT       0.417000       1.00800           0
     26559 TIP3     3107     TIP3     H2       HT       0.417000       1.00800           0
     26560 TIP3     3108     TIP3     OH2      OT      -0.834000       15.9994           0
     26561 TIP3     3108     TIP3     H1       HT       0.417000       1.00800           0
     26562 TIP3     3108     TIP3     H2       HT       0.417000       1.00800           0
     26563 TIP3     3109     TIP3     OH2      OT      -0.834000       15.9994           0
     26564 TIP3     3109     TIP3     H1       HT       0.417000       1.00800           0
     26565 TIP3     3109     TIP3     H2       HT       0.417000       1.00800           0
     26566 TIP3     3110     TIP3     OH2      OT      -0.834000       15.9994           0
     26567 TIP3     3110     TIP3     H1       HT       0.417000       1.00800           0
     26568 TIP3     3110     TIP3     H2       HT       0.417000       1.00800           0
     26569 TIP3     3111     TIP3     OH2      OT      -0.834000       15.9994           0
     26570 TIP3     3111     TIP3     H1       HT       0.417000       1.00800           0
     26571 TIP3     3111     TIP3     H2       HT       0.417000       1.00800           0
     26572 TIP3     3112     TIP3     OH2      OT      -0.834000       15.9994           0
     26573 TIP3     3112     TIP3     H1       HT       0.417000       1.00800           0
     26574 TIP3     3112     TIP3     H2       HT       0.417000       1.00800           0
     26575 TIP3     3113     TIP3     OH2      OT      -0.834000       15.9994           0
     26576 TIP3     3113     TIP3     H1       HT       0.417000       1.00800           0
     26577 TIP3     3113     TIP3     H2       HT       0.417000       1.00800           0
     26578 TIP3     3114     TIP3     OH2      OT      -0.834000       15.9994           0
     26579 TIP3     3114     TIP3     H1       HT       0.417000       1.00800           0
     26580 TIP3     3114     TIP3     H2       HT       0.417000       1.00800           0
     26581 TIP3     3115     TIP3     OH2      OT      -0.834000       15.9994           0
     26582 TIP3     3115     TIP3     H1       HT       0.417000       1.00800           0
     26583 TIP3     3115     TIP3     H2       HT       0.417000       1.00800           0
     26584 TIP3     3116     TIP3     OH2      OT      -0.834000       15.9994           0
     26585 TIP3     3116     TIP3     H1       HT       0.417000       1.00800           0
     26586 TIP3     3116     TIP3     H2       HT       0.417000       1.00800           0
     26587 TIP3     3117     TIP3     OH2      OT      -0.834000       15.9994           0
     26588 TIP3     3117     TIP3     H1       HT       0.417000       1.00800           0
     26589 TIP3     3117     TIP3     H2       HT       0.417000       1.00800           0
     26590 TIP3     3118     TIP3     OH2      OT      -0.834000       15.9994           0
     26591 TIP3     3118     TIP3     H1       HT       0.417000       1.00800           0
     26592 TIP3     3118     TIP3     H2       HT       0.417000       1.00800           0
     26593 TIP3     3119     TIP3     OH2      OT      -0.834000       15.9994           0
     26594 TIP3     3119     TIP3     H1       HT       0.417000       1.00800           0
     26595 TIP3     3119     TIP3     H2       HT       0.417000       1.00800           0
     26596 TIP3     3120     TIP3     OH2      OT      -0.834000       15.9994           0
     26597 TIP3     3120     TIP3     H1       HT       0.417000       1.00800           0
     26598 TIP3     3120     TIP3     H2       HT       0.417000       1.00800           0
     26599 TIP3     3121     TIP3     OH2      OT      -0.834000       15.9994           0
     26600 TIP3     3121     TIP3     H1       HT       0.417000       1.00800           0
     26601 TIP3     3121     TIP3     H2       HT       0.417000       1.00800           0
     26602 TIP3     3122     TIP3     OH2      OT      -0.834000       15.9994           0
     26603 TIP3     3122     TIP3     H1       HT       0.417000       1.00800           0
     26604 TIP3     3122     TIP3     H2       HT       0.417000       1.00800           0
     26605 TIP3     3123     TIP3     OH2      OT      -0.834000       15.9994           0
     26606 TIP3     3123     TIP3     H1       HT       0.417000       1.00800           0
     26607 TIP3     3123     TIP3     H2       HT       0.417000       1.00800           0
     26608 TIP3     3124     TIP3     OH2      OT      -0.834000       15.9994           0
     26609 TIP3     3124     TIP3     H1       HT       0.417000       1.00800           0
     26610 TIP3     3124     TIP3     H2       HT       0.417000       1.00800           0
     26611 TIP3     3125     TIP3     OH2      OT      -0.834000       15.9994           0
     26612 TIP3     3125     TIP3     H1       HT       0.417000       1.00800           0
     26613 TIP3     3125     TIP3     H2       HT       0.417000       1.00800           0
     26614 TIP3     3126     TIP3     OH2      OT      -0.834000       15.9994           0
     26615 TIP3     3126     TIP3     H1       HT       0.417000       1.00800           0
     26616 TIP3     3126     TIP3     H2       HT       0.417000       1.00800           0
     26617 TIP3     3127     TIP3     OH2      OT      -0.834000       15.9994           0
     26618 TIP3     3127     TIP3     H1       HT       0.417000       1.00800           0
     26619 TIP3     3127     TIP3     H2       HT       0.417000       1.00800           0
     26620 TIP3     3128     TIP3     OH2      OT      -0.834000       15.9994           0
     26621 TIP3     3128     TIP3     H1       HT       0.417000       1.00800           0
     26622 TIP3     3128     TIP3     H2       HT       0.417000       1.00800           0
     26623 TIP3     3129     TIP3     OH2      OT      -0.834000       15.9994           0
     26624 TIP3     3129     TIP3     H1       HT       0.417000       1.00800           0
     26625 TIP3     3129     TIP3     H2       HT       0.417000       1.00800           0
     26626 TIP3     3130     TIP3     OH2      OT      -0.834000       15.9994           0
     26627 TIP3     3130     TIP3     H1       HT       0.417000       1.00800           0
     26628 TIP3     3130     TIP3     H2       HT       0.417000       1.00800           0
     26629 TIP3     3131     TIP3     OH2      OT      -0.834000       15.9994           0
     26630 TIP3     3131     TIP3     H1       HT       0.417000       1.00800           0
     26631 TIP3     3131     TIP3     H2       HT       0.417000       1.00800           0
     26632 TIP3     3132     TIP3     OH2      OT      -0.834000       15.9994           0
     26633 TIP3     3132     TIP3     H1       HT       0.417000       1.00800           0
     26634 TIP3     3132     TIP3     H2       HT       0.417000       1.00800           0
     26635 TIP3     3133     TIP3     OH2      OT      -0.834000       15.9994           0
     26636 TIP3     3133     TIP3     H1       HT       0.417000       1.00800           0
     26637 TIP3     3133     TIP3     H2       HT       0.417000       1.00800           0
     26638 TIP3     3134     TIP3     OH2      OT      -0.834000       15.9994           0
     26639 TIP3     3134     TIP3     H1       HT       0.417000       1.00800           0
     26640 TIP3     3134     TIP3     H2       HT       0.417000       1.00800           0
     26641 TIP3     3135     TIP3     OH2      OT      -0.834000       15.9994           0
     26642 TIP3     3135     TIP3     H1       HT       0.417000       1.00800           0
     26643 TIP3     3135     TIP3     H2       HT       0.417000       1.00800           0
     26644 TIP3     3136     TIP3     OH2      OT      -0.834000       15.9994           0
     26645 TIP3     3136     TIP3     H1       HT       0.417000       1.00800           0
     26646 TIP3     3136     TIP3     H2       HT       0.417000       1.00800           0
     26647 TIP3     3137     TIP3     OH2      OT      -0.834000       15.9994           0
     26648 TIP3     3137     TIP3     H1       HT       0.417000       1.00800           0
     26649 TIP3     3137     TIP3     H2       HT       0.417000       1.00800           0
     26650 TIP3     3138     TIP3     OH2      OT      -0.834000       15.9994           0
     26651 TIP3     3138     TIP3     H1       HT       0.417000       1.00800           0
     26652 TIP3     3138     TIP3     H2       HT       0.417000       1.00800           0
     26653 TIP3     3139     TIP3     OH2      OT      -0.834000       15.9994           0
     26654 TIP3     3139     TIP3     H1       HT       0.417000       1.00800           0
     26655 TIP3     3139     TIP3     H2       HT       0.417000       1.00800           0
     26656 TIP3     3140     TIP3     OH2      OT      -0.834000       15.9994           0
     26657 TIP3     3140     TIP3     H1       HT       0.417000       1.00800           0
     26658 TIP3     3140     TIP3     H2       HT       0.417000       1.00800           0
     26659 TIP3     3141     TIP3     OH2      OT      -0.834000       15.9994           0
     26660 TIP3     3141     TIP3     H1       HT       0.417000       1.00800           0
     26661 TIP3     3141     TIP3     H2       HT       0.417000       1.00800           0
     26662 TIP3     3142     TIP3     OH2      OT      -0.834000       15.9994           0
     26663 TIP3     3142     TIP3     H1       HT       0.417000       1.00800           0
     26664 TIP3     3142     TIP3     H2       HT       0.417000       1.00800           0
     26665 TIP3     3143     TIP3     OH2      OT      -0.834000       15.9994           0
     26666 TIP3     3143     TIP3     H1       HT       0.417000       1.00800           0
     26667 TIP3     3143     TIP3     H2       HT       0.417000       1.00800           0
     26668 TIP3     3144     TIP3     OH2      OT      -0.834000       15.9994           0
     26669 TIP3     3144     TIP3     H1       HT       0.417000       1.00800           0
     26670 TIP3     3144     TIP3     H2       HT       0.417000       1.00800           0
     26671 TIP3     3145     TIP3     OH2      OT      -0.834000       15.9994           0
     26672 TIP3     3145     TIP3     H1       HT       0.417000       1.00800           0
     26673 TIP3     3145     TIP3     H2       HT       0.417000       1.00800           0
     26674 TIP3     3146     TIP3     OH2      OT      -0.834000       15.9994           0
     26675 TIP3     3146     TIP3     H1       HT       0.417000       1.00800           0
     26676 TIP3     3146     TIP3     H2       HT       0.417000       1.00800           0
     26677 TIP3     3147     TIP3     OH2      OT      -0.834000       15.9994           0
     26678 TIP3     3147     TIP3     H1       HT       0.417000       1.00800           0
     26679 TIP3     3147     TIP3     H2       HT       0.417000       1.00800           0
     26680 TIP3     3148     TIP3     OH2      OT      -0.834000       15.9994           0
     26681 TIP3     3148     TIP3     H1       HT       0.417000       1.00800           0
     26682 TIP3     3148     TIP3     H2       HT       0.417000       1.00800           0
     26683 TIP3     3149     TIP3     OH2      OT      -0.834000       15.9994           0
     26684 TIP3     3149     TIP3     H1       HT       0.417000       1.00800           0
     26685 TIP3     3149     TIP3     H2       HT       0.417000       1.00800           0
     26686 TIP3     3150     TIP3     OH2      OT      -0.834000       15.9994           0
     26687 TIP3     3150     TIP3     H1       HT       0.417000       1.00800           0
     26688 TIP3     3150     TIP3     H2       HT       0.417000       1.00800           0
     26689 TIP3     3151     TIP3     OH2      OT      -0.834000       15.9994           0
     26690 TIP3     3151     TIP3     H1       HT       0.417000       1.00800           0
     26691 TIP3     3151     TIP3     H2       HT       0.417000       1.00800           0
     26692 TIP3     3152     TIP3     OH2      OT      -0.834000       15.9994           0
     26693 TIP3     3152     TIP3     H1       HT       0.417000       1.00800           0
     26694 TIP3     3152     TIP3     H2       HT       0.417000       1.00800           0
     26695 TIP3     3153     TIP3     OH2      OT      -0.834000       15.9994           0
     26696 TIP3     3153     TIP3     H1       HT       0.417000       1.00800           0
     26697 TIP3     3153     TIP3     H2       HT       0.417000       1.00800           0
     26698 TIP3     3154     TIP3     OH2      OT      -0.834000       15.9994           0
     26699 TIP3     3154     TIP3     H1       HT       0.417000       1.00800           0
     26700 TIP3     3154     TIP3     H2       HT       0.417000       1.00800           0
     26701 TIP3     3155     TIP3     OH2      OT      -0.834000       15.9994           0
     26702 TIP3     3155     TIP3     H1       HT       0.417000       1.00800           0
     26703 TIP3     3155     TIP3     H2       HT       0.417000       1.00800           0
     26704 TIP3     3156     TIP3     OH2      OT      -0.834000       15.9994           0
     26705 TIP3     3156     TIP3     H1       HT       0.417000       1.00800           0
     26706 TIP3     3156     TIP3     H2       HT       0.417000       1.00800           0
     26707 TIP3     3157     TIP3     OH2      OT      -0.834000       15.9994           0
     26708 TIP3     3157     TIP3     H1       HT       0.417000       1.00800           0
     26709 TIP3     3157     TIP3     H2       HT       0.417000       1.00800           0
     26710 TIP3     3158     TIP3     OH2      OT      -0.834000       15.9994           0
     26711 TIP3     3158     TIP3     H1       HT       0.417000       1.00800           0
     26712 TIP3     3158     TIP3     H2       HT       0.417000       1.00800           0
     26713 TIP3     3159     TIP3     OH2      OT      -0.834000       15.9994           0
     26714 TIP3     3159     TIP3     H1       HT       0.417000       1.00800           0
     26715 TIP3     3159     TIP3     H2       HT       0.417000       1.00800           0
     26716 TIP3     3160     TIP3     OH2      OT      -0.834000       15.9994           0
     26717 TIP3     3160     TIP3     H1       HT       0.417000       1.00800           0
     26718 TIP3     3160     TIP3     H2       HT       0.417000       1.00800           0
     26719 TIP3     3161     TIP3     OH2      OT      -0.834000       15.9994           0
     26720 TIP3     3161     TIP3     H1       HT       0.417000       1.00800           0
     26721 TIP3     3161     TIP3     H2       HT       0.417000       1.00800           0
     26722 TIP3     3162     TIP3     OH2      OT      -0.834000       15.9994           0
     26723 TIP3     3162     TIP3     H1       HT       0.417000       1.00800           0
     26724 TIP3     3162     TIP3     H2       HT       0.417000       1.00800           0
     26725 TIP3     3163     TIP3     OH2      OT      -0.834000       15.9994           0
     26726 TIP3     3163     TIP3     H1       HT       0.417000       1.00800           0
     26727 TIP3     3163     TIP3     H2       HT       0.417000       1.00800           0
     26728 TIP3     3164     TIP3     OH2      OT      -0.834000       15.9994           0
     26729 TIP3     3164     TIP3     H1       HT       0.417000       1.00800           0
     26730 TIP3     3164     TIP3     H2       HT       0.417000       1.00800           0
     26731 TIP3     3165     TIP3     OH2      OT      -0.834000       15.9994           0
     26732 TIP3     3165     TIP3     H1       HT       0.417000       1.00800           0
     26733 TIP3     3165     TIP3     H2       HT       0.417000       1.00800           0
     26734 TIP3     3166     TIP3     OH2      OT      -0.834000       15.9994           0
     26735 TIP3     3166     TIP3     H1       HT       0.417000       1.00800           0
     26736 TIP3     3166     TIP3     H2       HT       0.417000       1.00800           0
     26737 TIP3     3167     TIP3     OH2      OT      -0.834000       15.9994           0
     26738 TIP3     3167     TIP3     H1       HT       0.417000       1.00800           0
     26739 TIP3     3167     TIP3     H2       HT       0.417000       1.00800           0
     26740 TIP3     3168     TIP3     OH2      OT      -0.834000       15.9994           0
     26741 TIP3     3168     TIP3     H1       HT       0.417000       1.00800           0
     26742 TIP3     3168     TIP3     H2       HT       0.417000       1.00800           0
     26743 TIP3     3169     TIP3     OH2      OT      -0.834000       15.9994           0
     26744 TIP3     3169     TIP3     H1       HT       0.417000       1.00800           0
     26745 TIP3     3169     TIP3     H2       HT       0.417000       1.00800           0
     26746 TIP3     3170     TIP3     OH2      OT      -0.834000       15.9994           0
     26747 TIP3     3170     TIP3     H1       HT       0.417000       1.00800           0
     26748 TIP3     3170     TIP3     H2       HT       0.417000       1.00800           0
     26749 TIP3     3171     TIP3     OH2      OT      -0.834000       15.9994           0
     26750 TIP3     3171     TIP3     H1       HT       0.417000       1.00800           0
     26751 TIP3     3171     TIP3     H2       HT       0.417000       1.00800           0
     26752 TIP3     3172     TIP3     OH2      OT      -0.834000       15.9994           0
     26753 TIP3     3172     TIP3     H1       HT       0.417000       1.00800           0
     26754 TIP3     3172     TIP3     H2       HT       0.417000       1.00800           0
     26755 TIP3     3173     TIP3     OH2      OT      -0.834000       15.9994           0
     26756 TIP3     3173     TIP3     H1       HT       0.417000       1.00800           0
     26757 TIP3     3173     TIP3     H2       HT       0.417000       1.00800           0
     26758 TIP3     3174     TIP3     OH2      OT      -0.834000       15.9994           0
     26759 TIP3     3174     TIP3     H1       HT       0.417000       1.00800           0
     26760 TIP3     3174     TIP3     H2       HT       0.417000       1.00800           0
     26761 TIP3     3175     TIP3     OH2      OT      -0.834000       15.9994           0
     26762 TIP3     3175     TIP3     H1       HT       0.417000       1.00800           0
     26763 TIP3     3175     TIP3     H2       HT       0.417000       1.00800           0
     26764 TIP3     3176     TIP3     OH2      OT      -0.834000       15.9994           0
     26765 TIP3     3176     TIP3     H1       HT       0.417000       1.00800           0
     26766 TIP3     3176     TIP3     H2       HT       0.417000       1.00800           0
     26767 TIP3     3177     TIP3     OH2      OT      -0.834000       15.9994           0
     26768 TIP3     3177     TIP3     H1       HT       0.417000       1.00800           0
     26769 TIP3     3177     TIP3     H2       HT       0.417000       1.00800           0
     26770 TIP3     3178     TIP3     OH2      OT      -0.834000       15.9994           0
     26771 TIP3     3178     TIP3     H1       HT       0.417000       1.00800           0
     26772 TIP3     3178     TIP3     H2       HT       0.417000       1.00800           0
     26773 TIP3     3179     TIP3     OH2      OT      -0.834000       15.9994           0
     26774 TIP3     3179     TIP3     H1       HT       0.417000       1.00800           0
     26775 TIP3     3179     TIP3     H2       HT       0.417000       1.00800           0
     26776 TIP3     3180     TIP3     OH2      OT      -0.834000       15.9994           0
     26777 TIP3     3180     TIP3     H1       HT       0.417000       1.00800           0
     26778 TIP3     3180     TIP3     H2       HT       0.417000       1.00800           0
     26779 TIP3     3181     TIP3     OH2      OT      -0.834000       15.9994           0
     26780 TIP3     3181     TIP3     H1       HT       0.417000       1.00800           0
     26781 TIP3     3181     TIP3     H2       HT       0.417000       1.00800           0
     26782 TIP3     3182     TIP3     OH2      OT      -0.834000       15.9994           0
     26783 TIP3     3182     TIP3     H1       HT       0.417000       1.00800           0
     26784 TIP3     3182     TIP3     H2       HT       0.417000       1.00800           0
     26785 TIP3     3183     TIP3     OH2      OT      -0.834000       15.9994           0
     26786 TIP3     3183     TIP3     H1       HT       0.417000       1.00800           0
     26787 TIP3     3183     TIP3     H2       HT       0.417000       1.00800           0
     26788 TIP3     3184     TIP3     OH2      OT      -0.834000       15.9994           0
     26789 TIP3     3184     TIP3     H1       HT       0.417000       1.00800           0
     26790 TIP3     3184     TIP3     H2       HT       0.417000       1.00800           0
     26791 TIP3     3185     TIP3     OH2      OT      -0.834000       15.9994           0
     26792 TIP3     3185     TIP3     H1       HT       0.417000       1.00800           0
     26793 TIP3     3185     TIP3     H2       HT       0.417000       1.00800           0
     26794 TIP3     3186     TIP3     OH2      OT      -0.834000       15.9994           0
     26795 TIP3     3186     TIP3     H1       HT       0.417000       1.00800           0
     26796 TIP3     3186     TIP3     H2       HT       0.417000       1.00800           0
     26797 TIP3     3187     TIP3     OH2      OT      -0.834000       15.9994           0
     26798 TIP3     3187     TIP3     H1       HT       0.417000       1.00800           0
     26799 TIP3     3187     TIP3     H2       HT       0.417000       1.00800           0
     26800 TIP3     3188     TIP3     OH2      OT      -0.834000       15.9994           0
     26801 TIP3     3188     TIP3     H1       HT       0.417000       1.00800           0
     26802 TIP3     3188     TIP3     H2       HT       0.417000       1.00800           0
     26803 TIP3     3189     TIP3     OH2      OT      -0.834000       15.9994           0
     26804 TIP3     3189     TIP3     H1       HT       0.417000       1.00800           0
     26805 TIP3     3189     TIP3     H2       HT       0.417000       1.00800           0
     26806 TIP3     3190     TIP3     OH2      OT      -0.834000       15.9994           0
     26807 TIP3     3190     TIP3     H1       HT       0.417000       1.00800           0
     26808 TIP3     3190     TIP3     H2       HT       0.417000       1.00800           0
     26809 TIP3     3191     TIP3     OH2      OT      -0.834000       15.9994           0
     26810 TIP3     3191     TIP3     H1       HT       0.417000       1.00800           0
     26811 TIP3     3191     TIP3     H2       HT       0.417000       1.00800           0
     26812 TIP3     3192     TIP3     OH2      OT      -0.834000       15.9994           0
     26813 TIP3     3192     TIP3     H1       HT       0.417000       1.00800           0
     26814 TIP3     3192     TIP3     H2       HT       0.417000       1.00800           0
     26815 TIP3     3193     TIP3     OH2      OT      -0.834000       15.9994           0
     26816 TIP3     3193     TIP3     H1       HT       0.417000       1.00800           0
     26817 TIP3     3193     TIP3     H2       HT       0.417000       1.00800           0
     26818 TIP3     3194     TIP3     OH2      OT      -0.834000       15.9994           0
     26819 TIP3     3194     TIP3     H1       HT       0.417000       1.00800           0
     26820 TIP3     3194     TIP3     H2       HT       0.417000       1.00800           0
     26821 TIP3     3195     TIP3     OH2      OT      -0.834000       15.9994           0
     26822 TIP3     3195     TIP3     H1       HT       0.417000       1.00800           0
     26823 TIP3     3195     TIP3     H2       HT       0.417000       1.00800           0
     26824 TIP3     3196     TIP3     OH2      OT      -0.834000       15.9994           0
     26825 TIP3     3196     TIP3     H1       HT       0.417000       1.00800           0
     26826 TIP3     3196     TIP3     H2       HT       0.417000       1.00800           0
     26827 TIP3     3197     TIP3     OH2      OT      -0.834000       15.9994           0
     26828 TIP3     3197     TIP3     H1       HT       0.417000       1.00800           0
     26829 TIP3     3197     TIP3     H2       HT       0.417000       1.00800           0
     26830 TIP3     3198     TIP3     OH2      OT      -0.834000       15.9994           0
     26831 TIP3     3198     TIP3     H1       HT       0.417000       1.00800           0
     26832 TIP3     3198     TIP3     H2       HT       0.417000       1.00800           0
     26833 TIP3     3199     TIP3     OH2      OT      -0.834000       15.9994           0
     26834 TIP3     3199     TIP3     H1       HT       0.417000       1.00800           0
     26835 TIP3     3199     TIP3     H2       HT       0.417000       1.00800           0
     26836 TIP3     3200     TIP3     OH2      OT      -0.834000       15.9994           0
     26837 TIP3     3200     TIP3     H1       HT       0.417000       1.00800           0
     26838 TIP3     3200     TIP3     H2       HT       0.417000       1.00800           0
     26839 TIP3     3201     TIP3     OH2      OT      -0.834000       15.9994           0
     26840 TIP3     3201     TIP3     H1       HT       0.417000       1.00800           0
     26841 TIP3     3201     TIP3     H2       HT       0.417000       1.00800           0
     26842 TIP3     3202     TIP3     OH2      OT      -0.834000       15.9994           0
     26843 TIP3     3202     TIP3     H1       HT       0.417000       1.00800           0
     26844 TIP3     3202     TIP3     H2       HT       0.417000       1.00800           0
     26845 TIP3     3203     TIP3     OH2      OT      -0.834000       15.9994           0
     26846 TIP3     3203     TIP3     H1       HT       0.417000       1.00800           0
     26847 TIP3     3203     TIP3     H2       HT       0.417000       1.00800           0
     26848 TIP3     3204     TIP3     OH2      OT      -0.834000       15.9994           0
     26849 TIP3     3204     TIP3     H1       HT       0.417000       1.00800           0
     26850 TIP3     3204     TIP3     H2       HT       0.417000       1.00800           0
     26851 TIP3     3205     TIP3     OH2      OT      -0.834000       15.9994           0
     26852 TIP3     3205     TIP3     H1       HT       0.417000       1.00800           0
     26853 TIP3     3205     TIP3     H2       HT       0.417000       1.00800           0
     26854 TIP3     3206     TIP3     OH2      OT      -0.834000       15.9994           0
     26855 TIP3     3206     TIP3     H1       HT       0.417000       1.00800           0
     26856 TIP3     3206     TIP3     H2       HT       0.417000       1.00800           0
     26857 TIP3     3207     TIP3     OH2      OT      -0.834000       15.9994           0
     26858 TIP3     3207     TIP3     H1       HT       0.417000       1.00800           0
     26859 TIP3     3207     TIP3     H2       HT       0.417000       1.00800           0
     26860 TIP3     3208     TIP3     OH2      OT      -0.834000       15.9994           0
     26861 TIP3     3208     TIP3     H1       HT       0.417000       1.00800           0
     26862 TIP3     3208     TIP3     H2       HT       0.417000       1.00800           0
     26863 TIP3     3209     TIP3     OH2      OT      -0.834000       15.9994           0
     26864 TIP3     3209     TIP3     H1       HT       0.417000       1.00800           0
     26865 TIP3     3209     TIP3     H2       HT       0.417000       1.00800           0
     26866 TIP3     3210     TIP3     OH2      OT      -0.834000       15.9994           0
     26867 TIP3     3210     TIP3     H1       HT       0.417000       1.00800           0
     26868 TIP3     3210     TIP3     H2       HT       0.417000       1.00800           0
     26869 TIP3     3211     TIP3     OH2      OT      -0.834000       15.9994           0
     26870 TIP3     3211     TIP3     H1       HT       0.417000       1.00800           0
     26871 TIP3     3211     TIP3     H2       HT       0.417000       1.00800           0
     26872 TIP3     3212     TIP3     OH2      OT      -0.834000       15.9994           0
     26873 TIP3     3212     TIP3     H1       HT       0.417000       1.00800           0
     26874 TIP3     3212     TIP3     H2       HT       0.417000       1.00800           0
     26875 TIP3     3213     TIP3     OH2      OT      -0.834000       15.9994           0
     26876 TIP3     3213     TIP3     H1       HT       0.417000       1.00800           0
     26877 TIP3     3213     TIP3     H2       HT       0.417000       1.00800           0
     26878 TIP3     3214     TIP3     OH2      OT      -0.834000       15.9994           0
     26879 TIP3     3214     TIP3     H1       HT       0.417000       1.00800           0
     26880 TIP3     3214     TIP3     H2       HT       0.417000       1.00800           0
     26881 TIP3     3215     TIP3     OH2      OT      -0.834000       15.9994           0
     26882 TIP3     3215     TIP3     H1       HT       0.417000       1.00800           0
     26883 TIP3     3215     TIP3     H2       HT       0.417000       1.00800           0
     26884 TIP3     3216     TIP3     OH2      OT      -0.834000       15.9994           0
     26885 TIP3     3216     TIP3     H1       HT       0.417000       1.00800           0
     26886 TIP3     3216     TIP3     H2       HT       0.417000       1.00800           0
     26887 TIP3     3217     TIP3     OH2      OT      -0.834000       15.9994           0
     26888 TIP3     3217     TIP3     H1       HT       0.417000       1.00800           0
     26889 TIP3     3217     TIP3     H2       HT       0.417000       1.00800           0
     26890 TIP3     3218     TIP3     OH2      OT      -0.834000       15.9994           0
     26891 TIP3     3218     TIP3     H1       HT       0.417000       1.00800           0
     26892 TIP3     3218     TIP3     H2       HT       0.417000       1.00800           0
     26893 TIP3     3219     TIP3     OH2      OT      -0.834000       15.9994           0
     26894 TIP3     3219     TIP3     H1       HT       0.417000       1.00800           0
     26895 TIP3     3219     TIP3     H2       HT       0.417000       1.00800           0
     26896 TIP3     3220     TIP3     OH2      OT      -0.834000       15.9994           0
     26897 TIP3     3220     TIP3     H1       HT       0.417000       1.00800           0
     26898 TIP3     3220     TIP3     H2       HT       0.417000       1.00800           0
     26899 TIP3     3221     TIP3     OH2      OT      -0.834000       15.9994           0
     26900 TIP3     3221     TIP3     H1       HT       0.417000       1.00800           0
     26901 TIP3     3221     TIP3     H2       HT       0.417000       1.00800           0
     26902 TIP3     3222     TIP3     OH2      OT      -0.834000       15.9994           0
     26903 TIP3     3222     TIP3     H1       HT       0.417000       1.00800           0
     26904 TIP3     3222     TIP3     H2       HT       0.417000       1.00800           0
     26905 TIP3     3223     TIP3     OH2      OT      -0.834000       15.9994           0
     26906 TIP3     3223     TIP3     H1       HT       0.417000       1.00800           0
     26907 TIP3     3223     TIP3     H2       HT       0.417000       1.00800           0
     26908 TIP3     3224     TIP3     OH2      OT      -0.834000       15.9994           0
     26909 TIP3     3224     TIP3     H1       HT       0.417000       1.00800           0
     26910 TIP3     3224     TIP3     H2       HT       0.417000       1.00800           0
     26911 TIP3     3225     TIP3     OH2      OT      -0.834000       15.9994           0
     26912 TIP3     3225     TIP3     H1       HT       0.417000       1.00800           0
     26913 TIP3     3225     TIP3     H2       HT       0.417000       1.00800           0
     26914 TIP3     3226     TIP3     OH2      OT      -0.834000       15.9994           0
     26915 TIP3     3226     TIP3     H1       HT       0.417000       1.00800           0
     26916 TIP3     3226     TIP3     H2       HT       0.417000       1.00800           0
     26917 TIP3     3227     TIP3     OH2      OT      -0.834000       15.9994           0
     26918 TIP3     3227     TIP3     H1       HT       0.417000       1.00800           0
     26919 TIP3     3227     TIP3     H2       HT       0.417000       1.00800           0
     26920 TIP3     3228     TIP3     OH2      OT      -0.834000       15.9994           0
     26921 TIP3     3228     TIP3     H1       HT       0.417000       1.00800           0
     26922 TIP3     3228     TIP3     H2       HT       0.417000       1.00800           0
     26923 TIP3     3229     TIP3     OH2      OT      -0.834000       15.9994           0
     26924 TIP3     3229     TIP3     H1       HT       0.417000       1.00800           0
     26925 TIP3     3229     TIP3     H2       HT       0.417000       1.00800           0
     26926 TIP3     3230     TIP3     OH2      OT      -0.834000       15.9994           0
     26927 TIP3     3230     TIP3     H1       HT       0.417000       1.00800           0
     26928 TIP3     3230     TIP3     H2       HT       0.417000       1.00800           0
     26929 TIP3     3231     TIP3     OH2      OT      -0.834000       15.9994           0
     26930 TIP3     3231     TIP3     H1       HT       0.417000       1.00800           0
     26931 TIP3     3231     TIP3     H2       HT       0.417000       1.00800           0
     26932 TIP3     3232     TIP3     OH2      OT      -0.834000       15.9994           0
     26933 TIP3     3232     TIP3     H1       HT       0.417000       1.00800           0
     26934 TIP3     3232     TIP3     H2       HT       0.417000       1.00800           0
     26935 TIP3     3233     TIP3     OH2      OT      -0.834000       15.9994           0
     26936 TIP3     3233     TIP3     H1       HT       0.417000       1.00800           0
     26937 TIP3     3233     TIP3     H2       HT       0.417000       1.00800           0
     26938 TIP3     3234     TIP3     OH2      OT      -0.834000       15.9994           0
     26939 TIP3     3234     TIP3     H1       HT       0.417000       1.00800           0
     26940 TIP3     3234     TIP3     H2       HT       0.417000       1.00800           0
     26941 TIP3     3235     TIP3     OH2      OT      -0.834000       15.9994           0
     26942 TIP3     3235     TIP3     H1       HT       0.417000       1.00800           0
     26943 TIP3     3235     TIP3     H2       HT       0.417000       1.00800           0
     26944 TIP3     3236     TIP3     OH2      OT      -0.834000       15.9994           0
     26945 TIP3     3236     TIP3     H1       HT       0.417000       1.00800           0
     26946 TIP3     3236     TIP3     H2       HT       0.417000       1.00800           0
     26947 TIP3     3237     TIP3     OH2      OT      -0.834000       15.9994           0
     26948 TIP3     3237     TIP3     H1       HT       0.417000       1.00800           0
     26949 TIP3     3237     TIP3     H2       HT       0.417000       1.00800           0
     26950 TIP3     3238     TIP3     OH2      OT      -0.834000       15.9994           0
     26951 TIP3     3238     TIP3     H1       HT       0.417000       1.00800           0
     26952 TIP3     3238     TIP3     H2       HT       0.417000       1.00800           0
     26953 TIP3     3239     TIP3     OH2      OT      -0.834000       15.9994           0
     26954 TIP3     3239     TIP3     H1       HT       0.417000       1.00800           0
     26955 TIP3     3239     TIP3     H2       HT       0.417000       1.00800           0
     26956 TIP3     3240     TIP3     OH2      OT      -0.834000       15.9994           0
     26957 TIP3     3240     TIP3     H1       HT       0.417000       1.00800           0
     26958 TIP3     3240     TIP3     H2       HT       0.417000       1.00800           0
     26959 TIP3     3241     TIP3     OH2      OT      -0.834000       15.9994           0
     26960 TIP3     3241     TIP3     H1       HT       0.417000       1.00800           0
     26961 TIP3     3241     TIP3     H2       HT       0.417000       1.00800           0
     26962 TIP3     3242     TIP3     OH2      OT      -0.834000       15.9994           0
     26963 TIP3     3242     TIP3     H1       HT       0.417000       1.00800           0
     26964 TIP3     3242     TIP3     H2       HT       0.417000       1.00800           0
     26965 TIP3     3243     TIP3     OH2      OT      -0.834000       15.9994           0
     26966 TIP3     3243     TIP3     H1       HT       0.417000       1.00800           0
     26967 TIP3     3243     TIP3     H2       HT       0.417000       1.00800           0
     26968 TIP3     3244     TIP3     OH2      OT      -0.834000       15.9994           0
     26969 TIP3     3244     TIP3     H1       HT       0.417000       1.00800           0
     26970 TIP3     3244     TIP3     H2       HT       0.417000       1.00800           0
     26971 TIP3     3245     TIP3     OH2      OT      -0.834000       15.9994           0
     26972 TIP3     3245     TIP3     H1       HT       0.417000       1.00800           0
     26973 TIP3     3245     TIP3     H2       HT       0.417000       1.00800           0
     26974 TIP3     3246     TIP3     OH2      OT      -0.834000       15.9994           0
     26975 TIP3     3246     TIP3     H1       HT       0.417000       1.00800           0
     26976 TIP3     3246     TIP3     H2       HT       0.417000       1.00800           0
     26977 TIP3     3247     TIP3     OH2      OT      -0.834000       15.9994           0
     26978 TIP3     3247     TIP3     H1       HT       0.417000       1.00800           0
     26979 TIP3     3247     TIP3     H2       HT       0.417000       1.00800           0
     26980 TIP3     3248     TIP3     OH2      OT      -0.834000       15.9994           0
     26981 TIP3     3248     TIP3     H1       HT       0.417000       1.00800           0
     26982 TIP3     3248     TIP3     H2       HT       0.417000       1.00800           0
     26983 TIP3     3249     TIP3     OH2      OT      -0.834000       15.9994           0
     26984 TIP3     3249     TIP3     H1       HT       0.417000       1.00800           0
     26985 TIP3     3249     TIP3     H2       HT       0.417000       1.00800           0
     26986 TIP3     3250     TIP3     OH2      OT      -0.834000       15.9994           0
     26987 TIP3     3250     TIP3     H1       HT       0.417000       1.00800           0
     26988 TIP3     3250     TIP3     H2       HT       0.417000       1.00800           0
     26989 TIP3     3251     TIP3     OH2      OT      -0.834000       15.9994           0
     26990 TIP3     3251     TIP3     H1       HT       0.417000       1.00800           0
     26991 TIP3     3251     TIP3     H2       HT       0.417000       1.00800           0
     26992 TIP3     3252     TIP3     OH2      OT      -0.834000       15.9994           0
     26993 TIP3     3252     TIP3     H1       HT       0.417000       1.00800           0
     26994 TIP3     3252     TIP3     H2       HT       0.417000       1.00800           0
     26995 TIP3     3253     TIP3     OH2      OT      -0.834000       15.9994           0
     26996 TIP3     3253     TIP3     H1       HT       0.417000       1.00800           0
     26997 TIP3     3253     TIP3     H2       HT       0.417000       1.00800           0
     26998 TIP3     3254     TIP3     OH2      OT      -0.834000       15.9994           0
     26999 TIP3     3254     TIP3     H1       HT       0.417000       1.00800           0
     27000 TIP3     3254     TIP3     H2       HT       0.417000       1.00800           0
     27001 TIP3     3255     TIP3     OH2      OT      -0.834000       15.9994           0
     27002 TIP3     3255     TIP3     H1       HT       0.417000       1.00800           0
     27003 TIP3     3255     TIP3     H2       HT       0.417000       1.00800           0
     27004 TIP3     3256     TIP3     OH2      OT      -0.834000       15.9994           0
     27005 TIP3     3256     TIP3     H1       HT       0.417000       1.00800           0
     27006 TIP3     3256     TIP3     H2       HT       0.417000       1.00800           0
     27007 TIP3     3257     TIP3     OH2      OT      -0.834000       15.9994           0
     27008 TIP3     3257     TIP3     H1       HT       0.417000       1.00800           0
     27009 TIP3     3257     TIP3     H2       HT       0.417000       1.00800           0
     27010 TIP3     3258     TIP3     OH2      OT      -0.834000       15.9994           0
     27011 TIP3     3258     TIP3     H1       HT       0.417000       1.00800           0
     27012 TIP3     3258     TIP3     H2       HT       0.417000       1.00800           0
     27013 TIP3     3259     TIP3     OH2      OT      -0.834000       15.9994           0
     27014 TIP3     3259     TIP3     H1       HT       0.417000       1.00800           0
     27015 TIP3     3259     TIP3     H2       HT       0.417000       1.00800           0
     27016 TIP3     3260     TIP3     OH2      OT      -0.834000       15.9994           0
     27017 TIP3     3260     TIP3     H1       HT       0.417000       1.00800           0
     27018 TIP3     3260     TIP3     H2       HT       0.417000       1.00800           0
     27019 TIP3     3261     TIP3     OH2      OT      -0.834000       15.9994           0
     27020 TIP3     3261     TIP3     H1       HT       0.417000       1.00800           0
     27021 TIP3     3261     TIP3     H2       HT       0.417000       1.00800           0
     27022 TIP3     3262     TIP3     OH2      OT      -0.834000       15.9994           0
     27023 TIP3     3262     TIP3     H1       HT       0.417000       1.00800           0
     27024 TIP3     3262     TIP3     H2       HT       0.417000       1.00800           0
     27025 TIP3     3263     TIP3     OH2      OT      -0.834000       15.9994           0
     27026 TIP3     3263     TIP3     H1       HT       0.417000       1.00800           0
     27027 TIP3     3263     TIP3     H2       HT       0.417000       1.00800           0
     27028 TIP3     3264     TIP3     OH2      OT      -0.834000       15.9994           0
     27029 TIP3     3264     TIP3     H1       HT       0.417000       1.00800           0
     27030 TIP3     3264     TIP3     H2       HT       0.417000       1.00800           0
     27031 TIP3     3265     TIP3     OH2      OT      -0.834000       15.9994           0
     27032 TIP3     3265     TIP3     H1       HT       0.417000       1.00800           0
     27033 TIP3     3265     TIP3     H2       HT       0.417000       1.00800           0
     27034 TIP3     3266     TIP3     OH2      OT      -0.834000       15.9994           0
     27035 TIP3     3266     TIP3     H1       HT       0.417000       1.00800           0
     27036 TIP3     3266     TIP3     H2       HT       0.417000       1.00800           0
     27037 TIP3     3267     TIP3     OH2      OT      -0.834000       15.9994           0
     27038 TIP3     3267     TIP3     H1       HT       0.417000       1.00800           0
     27039 TIP3     3267     TIP3     H2       HT       0.417000       1.00800           0
     27040 TIP3     3268     TIP3     OH2      OT      -0.834000       15.9994           0
     27041 TIP3     3268     TIP3     H1       HT       0.417000       1.00800           0
     27042 TIP3     3268     TIP3     H2       HT       0.417000       1.00800           0
     27043 TIP3     3269     TIP3     OH2      OT      -0.834000       15.9994           0
     27044 TIP3     3269     TIP3     H1       HT       0.417000       1.00800           0
     27045 TIP3     3269     TIP3     H2       HT       0.417000       1.00800           0
     27046 TIP3     3270     TIP3     OH2      OT      -0.834000       15.9994           0
     27047 TIP3     3270     TIP3     H1       HT       0.417000       1.00800           0
     27048 TIP3     3270     TIP3     H2       HT       0.417000       1.00800           0
     27049 TIP3     3271     TIP3     OH2      OT      -0.834000       15.9994           0
     27050 TIP3     3271     TIP3     H1       HT       0.417000       1.00800           0
     27051 TIP3     3271     TIP3     H2       HT       0.417000       1.00800           0
     27052 TIP3     3272     TIP3     OH2      OT      -0.834000       15.9994           0
     27053 TIP3     3272     TIP3     H1       HT       0.417000       1.00800           0
     27054 TIP3     3272     TIP3     H2       HT       0.417000       1.00800           0
     27055 TIP3     3273     TIP3     OH2      OT      -0.834000       15.9994           0
     27056 TIP3     3273     TIP3     H1       HT       0.417000       1.00800           0
     27057 TIP3     3273     TIP3     H2       HT       0.417000       1.00800           0
     27058 TIP3     3274     TIP3     OH2      OT      -0.834000       15.9994           0
     27059 TIP3     3274     TIP3     H1       HT       0.417000       1.00800           0
     27060 TIP3     3274     TIP3     H2       HT       0.417000       1.00800           0
     27061 TIP3     3275     TIP3     OH2      OT      -0.834000       15.9994           0
     27062 TIP3     3275     TIP3     H1       HT       0.417000       1.00800           0
     27063 TIP3     3275     TIP3     H2       HT       0.417000       1.00800           0
     27064 TIP3     3276     TIP3     OH2      OT      -0.834000       15.9994           0
     27065 TIP3     3276     TIP3     H1       HT       0.417000       1.00800           0
     27066 TIP3     3276     TIP3     H2       HT       0.417000       1.00800           0
     27067 TIP3     3277     TIP3     OH2      OT      -0.834000       15.9994           0
     27068 TIP3     3277     TIP3     H1       HT       0.417000       1.00800           0
     27069 TIP3     3277     TIP3     H2       HT       0.417000       1.00800           0
     27070 TIP3     3278     TIP3     OH2      OT      -0.834000       15.9994           0
     27071 TIP3     3278     TIP3     H1       HT       0.417000       1.00800           0
     27072 TIP3     3278     TIP3     H2       HT       0.417000       1.00800           0
     27073 TIP3     3279     TIP3     OH2      OT      -0.834000       15.9994           0
     27074 TIP3     3279     TIP3     H1       HT       0.417000       1.00800           0
     27075 TIP3     3279     TIP3     H2       HT       0.417000       1.00800           0
     27076 TIP3     3280     TIP3     OH2      OT      -0.834000       15.9994           0
     27077 TIP3     3280     TIP3     H1       HT       0.417000       1.00800           0
     27078 TIP3     3280     TIP3     H2       HT       0.417000       1.00800           0
     27079 TIP3     3281     TIP3     OH2      OT      -0.834000       15.9994           0
     27080 TIP3     3281     TIP3     H1       HT       0.417000       1.00800           0
     27081 TIP3     3281     TIP3     H2       HT       0.417000       1.00800           0
     27082 TIP3     3282     TIP3     OH2      OT      -0.834000       15.9994           0
     27083 TIP3     3282     TIP3     H1       HT       0.417000       1.00800           0
     27084 TIP3     3282     TIP3     H2       HT       0.417000       1.00800           0
     27085 TIP3     3283     TIP3     OH2      OT      -0.834000       15.9994           0
     27086 TIP3     3283     TIP3     H1       HT       0.417000       1.00800           0
     27087 TIP3     3283     TIP3     H2       HT       0.417000       1.00800           0
     27088 TIP3     3284     TIP3     OH2      OT      -0.834000       15.9994           0
     27089 TIP3     3284     TIP3     H1       HT       0.417000       1.00800           0
     27090 TIP3     3284     TIP3     H2       HT       0.417000       1.00800           0
     27091 TIP3     3285     TIP3     OH2      OT      -0.834000       15.9994           0
     27092 TIP3     3285     TIP3     H1       HT       0.417000       1.00800           0
     27093 TIP3     3285     TIP3     H2       HT       0.417000       1.00800           0
     27094 TIP3     3286     TIP3     OH2      OT      -0.834000       15.9994           0
     27095 TIP3     3286     TIP3     H1       HT       0.417000       1.00800           0
     27096 TIP3     3286     TIP3     H2       HT       0.417000       1.00800           0
     27097 TIP3     3287     TIP3     OH2      OT      -0.834000       15.9994           0
     27098 TIP3     3287     TIP3     H1       HT       0.417000       1.00800           0
     27099 TIP3     3287     TIP3     H2       HT       0.417000       1.00800           0
     27100 TIP3     3288     TIP3     OH2      OT      -0.834000       15.9994           0
     27101 TIP3     3288     TIP3     H1       HT       0.417000       1.00800           0
     27102 TIP3     3288     TIP3     H2       HT       0.417000       1.00800           0
     27103 TIP3     3289     TIP3     OH2      OT      -0.834000       15.9994           0
     27104 TIP3     3289     TIP3     H1       HT       0.417000       1.00800           0
     27105 TIP3     3289     TIP3     H2       HT       0.417000       1.00800           0
     27106 TIP3     3290     TIP3     OH2      OT      -0.834000       15.9994           0
     27107 TIP3     3290     TIP3     H1       HT       0.417000       1.00800           0
     27108 TIP3     3290     TIP3     H2       HT       0.417000       1.00800           0
     27109 TIP3     3291     TIP3     OH2      OT      -0.834000       15.9994           0
     27110 TIP3     3291     TIP3     H1       HT       0.417000       1.00800           0
     27111 TIP3     3291     TIP3     H2       HT       0.417000       1.00800           0
     27112 TIP3     3292     TIP3     OH2      OT      -0.834000       15.9994           0
     27113 TIP3     3292     TIP3     H1       HT       0.417000       1.00800           0
     27114 TIP3     3292     TIP3     H2       HT       0.417000       1.00800           0
     27115 TIP3     3293     TIP3     OH2      OT      -0.834000       15.9994           0
     27116 TIP3     3293     TIP3     H1       HT       0.417000       1.00800           0
     27117 TIP3     3293     TIP3     H2       HT       0.417000       1.00800           0
     27118 TIP3     3294     TIP3     OH2      OT      -0.834000       15.9994           0
     27119 TIP3     3294     TIP3     H1       HT       0.417000       1.00800           0
     27120 TIP3     3294     TIP3     H2       HT       0.417000       1.00800           0
     27121 TIP3     3295     TIP3     OH2      OT      -0.834000       15.9994           0
     27122 TIP3     3295     TIP3     H1       HT       0.417000       1.00800           0
     27123 TIP3     3295     TIP3     H2       HT       0.417000       1.00800           0
     27124 TIP3     3296     TIP3     OH2      OT      -0.834000       15.9994           0
     27125 TIP3     3296     TIP3     H1       HT       0.417000       1.00800           0
     27126 TIP3     3296     TIP3     H2       HT       0.417000       1.00800           0
     27127 TIP3     3297     TIP3     OH2      OT      -0.834000       15.9994           0
     27128 TIP3     3297     TIP3     H1       HT       0.417000       1.00800           0
     27129 TIP3     3297     TIP3     H2       HT       0.417000       1.00800           0
     27130 TIP3     3298     TIP3     OH2      OT      -0.834000       15.9994           0
     27131 TIP3     3298     TIP3     H1       HT       0.417000       1.00800           0
     27132 TIP3     3298     TIP3     H2       HT       0.417000       1.00800           0
     27133 TIP3     3299     TIP3     OH2      OT      -0.834000       15.9994           0
     27134 TIP3     3299     TIP3     H1       HT       0.417000       1.00800           0
     27135 TIP3     3299     TIP3     H2       HT       0.417000       1.00800           0
     27136 TIP3     3300     TIP3     OH2      OT      -0.834000       15.9994           0
     27137 TIP3     3300     TIP3     H1       HT       0.417000       1.00800           0
     27138 TIP3     3300     TIP3     H2       HT       0.417000       1.00800           0
     27139 TIP3     3301     TIP3     OH2      OT      -0.834000       15.9994           0
     27140 TIP3     3301     TIP3     H1       HT       0.417000       1.00800           0
     27141 TIP3     3301     TIP3     H2       HT       0.417000       1.00800           0
     27142 TIP3     3302     TIP3     OH2      OT      -0.834000       15.9994           0
     27143 TIP3     3302     TIP3     H1       HT       0.417000       1.00800           0
     27144 TIP3     3302     TIP3     H2       HT       0.417000       1.00800           0
     27145 TIP3     3303     TIP3     OH2      OT      -0.834000       15.9994           0
     27146 TIP3     3303     TIP3     H1       HT       0.417000       1.00800           0
     27147 TIP3     3303     TIP3     H2       HT       0.417000       1.00800           0
     27148 TIP3     3304     TIP3     OH2      OT      -0.834000       15.9994           0
     27149 TIP3     3304     TIP3     H1       HT       0.417000       1.00800           0
     27150 TIP3     3304     TIP3     H2       HT       0.417000       1.00800           0
     27151 TIP3     3305     TIP3     OH2      OT      -0.834000       15.9994           0
     27152 TIP3     3305     TIP3     H1       HT       0.417000       1.00800           0
     27153 TIP3     3305     TIP3     H2       HT       0.417000       1.00800           0
     27154 TIP3     3306     TIP3     OH2      OT      -0.834000       15.9994           0
     27155 TIP3     3306     TIP3     H1       HT       0.417000       1.00800           0
     27156 TIP3     3306     TIP3     H2       HT       0.417000       1.00800           0
     27157 TIP3     3307     TIP3     OH2      OT      -0.834000       15.9994           0
     27158 TIP3     3307     TIP3     H1       HT       0.417000       1.00800           0
     27159 TIP3     3307     TIP3     H2       HT       0.417000       1.00800           0
     27160 TIP3     3308     TIP3     OH2      OT      -0.834000       15.9994           0
     27161 TIP3     3308     TIP3     H1       HT       0.417000       1.00800           0
     27162 TIP3     3308     TIP3     H2       HT       0.417000       1.00800           0
     27163 TIP3     3309     TIP3     OH2      OT      -0.834000       15.9994           0
     27164 TIP3     3309     TIP3     H1       HT       0.417000       1.00800           0
     27165 TIP3     3309     TIP3     H2       HT       0.417000       1.00800           0
     27166 TIP3     3310     TIP3     OH2      OT      -0.834000       15.9994           0
     27167 TIP3     3310     TIP3     H1       HT       0.417000       1.00800           0
     27168 TIP3     3310     TIP3     H2       HT       0.417000       1.00800           0
     27169 TIP3     3311     TIP3     OH2      OT      -0.834000       15.9994           0
     27170 TIP3     3311     TIP3     H1       HT       0.417000       1.00800           0
     27171 TIP3     3311     TIP3     H2       HT       0.417000       1.00800           0
     27172 TIP3     3312     TIP3     OH2      OT      -0.834000       15.9994           0
     27173 TIP3     3312     TIP3     H1       HT       0.417000       1.00800           0
     27174 TIP3     3312     TIP3     H2       HT       0.417000       1.00800           0
     27175 TIP3     3313     TIP3     OH2      OT      -0.834000       15.9994           0
     27176 TIP3     3313     TIP3     H1       HT       0.417000       1.00800           0
     27177 TIP3     3313     TIP3     H2       HT       0.417000       1.00800           0
     27178 TIP3     3314     TIP3     OH2      OT      -0.834000       15.9994           0
     27179 TIP3     3314     TIP3     H1       HT       0.417000       1.00800           0
     27180 TIP3     3314     TIP3     H2       HT       0.417000       1.00800           0
     27181 TIP3     3315     TIP3     OH2      OT      -0.834000       15.9994           0
     27182 TIP3     3315     TIP3     H1       HT       0.417000       1.00800           0
     27183 TIP3     3315     TIP3     H2       HT       0.417000       1.00800           0
     27184 TIP3     3316     TIP3     OH2      OT      -0.834000       15.9994           0
     27185 TIP3     3316     TIP3     H1       HT       0.417000       1.00800           0
     27186 TIP3     3316     TIP3     H2       HT       0.417000       1.00800           0
     27187 TIP3     3317     TIP3     OH2      OT      -0.834000       15.9994           0
     27188 TIP3     3317     TIP3     H1       HT       0.417000       1.00800           0
     27189 TIP3     3317     TIP3     H2       HT       0.417000       1.00800           0
     27190 TIP3     3318     TIP3     OH2      OT      -0.834000       15.9994           0
     27191 TIP3     3318     TIP3     H1       HT       0.417000       1.00800           0
     27192 TIP3     3318     TIP3     H2       HT       0.417000       1.00800           0
     27193 TIP3     3319     TIP3     OH2      OT      -0.834000       15.9994           0
     27194 TIP3     3319     TIP3     H1       HT       0.417000       1.00800           0
     27195 TIP3     3319     TIP3     H2       HT       0.417000       1.00800           0
     27196 TIP3     3320     TIP3     OH2      OT      -0.834000       15.9994           0
     27197 TIP3     3320     TIP3     H1       HT       0.417000       1.00800           0
     27198 TIP3     3320     TIP3     H2       HT       0.417000       1.00800           0
     27199 TIP3     3321     TIP3     OH2      OT      -0.834000       15.9994           0
     27200 TIP3     3321     TIP3     H1       HT       0.417000       1.00800           0
     27201 TIP3     3321     TIP3     H2       HT       0.417000       1.00800           0
     27202 TIP3     3322     TIP3     OH2      OT      -0.834000       15.9994           0
     27203 TIP3     3322     TIP3     H1       HT       0.417000       1.00800           0
     27204 TIP3     3322     TIP3     H2       HT       0.417000       1.00800           0
     27205 TIP3     3323     TIP3     OH2      OT      -0.834000       15.9994           0
     27206 TIP3     3323     TIP3     H1       HT       0.417000       1.00800           0
     27207 TIP3     3323     TIP3     H2       HT       0.417000       1.00800           0
     27208 TIP3     3324     TIP3     OH2      OT      -0.834000       15.9994           0
     27209 TIP3     3324     TIP3     H1       HT       0.417000       1.00800           0
     27210 TIP3     3324     TIP3     H2       HT       0.417000       1.00800           0
     27211 TIP3     3325     TIP3     OH2      OT      -0.834000       15.9994           0
     27212 TIP3     3325     TIP3     H1       HT       0.417000       1.00800           0
     27213 TIP3     3325     TIP3     H2       HT       0.417000       1.00800           0
     27214 TIP3     3326     TIP3     OH2      OT      -0.834000       15.9994           0
     27215 TIP3     3326     TIP3     H1       HT       0.417000       1.00800           0
     27216 TIP3     3326     TIP3     H2       HT       0.417000       1.00800           0
     27217 TIP3     3327     TIP3     OH2      OT      -0.834000       15.9994           0
     27218 TIP3     3327     TIP3     H1       HT       0.417000       1.00800           0
     27219 TIP3     3327     TIP3     H2       HT       0.417000       1.00800           0
     27220 TIP3     3328     TIP3     OH2      OT      -0.834000       15.9994           0
     27221 TIP3     3328     TIP3     H1       HT       0.417000       1.00800           0
     27222 TIP3     3328     TIP3     H2       HT       0.417000       1.00800           0
     27223 TIP3     3329     TIP3     OH2      OT      -0.834000       15.9994           0
     27224 TIP3     3329     TIP3     H1       HT       0.417000       1.00800           0
     27225 TIP3     3329     TIP3     H2       HT       0.417000       1.00800           0
     27226 TIP3     3330     TIP3     OH2      OT      -0.834000       15.9994           0
     27227 TIP3     3330     TIP3     H1       HT       0.417000       1.00800           0
     27228 TIP3     3330     TIP3     H2       HT       0.417000       1.00800           0
     27229 TIP3     3331     TIP3     OH2      OT      -0.834000       15.9994           0
     27230 TIP3     3331     TIP3     H1       HT       0.417000       1.00800           0
     27231 TIP3     3331     TIP3     H2       HT       0.417000       1.00800           0
     27232 TIP3     3332     TIP3     OH2      OT      -0.834000       15.9994           0
     27233 TIP3     3332     TIP3     H1       HT       0.417000       1.00800           0
     27234 TIP3     3332     TIP3     H2       HT       0.417000       1.00800           0
     27235 TIP3     3333     TIP3     OH2      OT      -0.834000       15.9994           0
     27236 TIP3     3333     TIP3     H1       HT       0.417000       1.00800           0
     27237 TIP3     3333     TIP3     H2       HT       0.417000       1.00800           0
     27238 TIP3     3334     TIP3     OH2      OT      -0.834000       15.9994           0
     27239 TIP3     3334     TIP3     H1       HT       0.417000       1.00800           0
     27240 TIP3     3334     TIP3     H2       HT       0.417000       1.00800           0
     27241 TIP3     3335     TIP3     OH2      OT      -0.834000       15.9994           0
     27242 TIP3     3335     TIP3     H1       HT       0.417000       1.00800           0
     27243 TIP3     3335     TIP3     H2       HT       0.417000       1.00800           0
     27244 TIP3     3336     TIP3     OH2      OT      -0.834000       15.9994           0
     27245 TIP3     3336     TIP3     H1       HT       0.417000       1.00800           0
     27246 TIP3     3336     TIP3     H2       HT       0.417000       1.00800           0
     27247 TIP3     3337     TIP3     OH2      OT      -0.834000       15.9994           0
     27248 TIP3     3337     TIP3     H1       HT       0.417000       1.00800           0
     27249 TIP3     3337     TIP3     H2       HT       0.417000       1.00800           0
     27250 TIP3     3338     TIP3     OH2      OT      -0.834000       15.9994           0
     27251 TIP3     3338     TIP3     H1       HT       0.417000       1.00800           0
     27252 TIP3     3338     TIP3     H2       HT       0.417000       1.00800           0
     27253 TIP3     3339     TIP3     OH2      OT      -0.834000       15.9994           0
     27254 TIP3     3339     TIP3     H1       HT       0.417000       1.00800           0
     27255 TIP3     3339     TIP3     H2       HT       0.417000       1.00800           0
     27256 TIP3     3340     TIP3     OH2      OT      -0.834000       15.9994           0
     27257 TIP3     3340     TIP3     H1       HT       0.417000       1.00800           0
     27258 TIP3     3340     TIP3     H2       HT       0.417000       1.00800           0
     27259 TIP3     3341     TIP3     OH2      OT      -0.834000       15.9994           0
     27260 TIP3     3341     TIP3     H1       HT       0.417000       1.00800           0
     27261 TIP3     3341     TIP3     H2       HT       0.417000       1.00800           0
     27262 TIP3     3342     TIP3     OH2      OT      -0.834000       15.9994           0
     27263 TIP3     3342     TIP3     H1       HT       0.417000       1.00800           0
     27264 TIP3     3342     TIP3     H2       HT       0.417000       1.00800           0
     27265 TIP3     3343     TIP3     OH2      OT      -0.834000       15.9994           0
     27266 TIP3     3343     TIP3     H1       HT       0.417000       1.00800           0
     27267 TIP3     3343     TIP3     H2       HT       0.417000       1.00800           0
     27268 TIP3     3344     TIP3     OH2      OT      -0.834000       15.9994           0
     27269 TIP3     3344     TIP3     H1       HT       0.417000       1.00800           0
     27270 TIP3     3344     TIP3     H2       HT       0.417000       1.00800           0
     27271 TIP3     3345     TIP3     OH2      OT      -0.834000       15.9994           0
     27272 TIP3     3345     TIP3     H1       HT       0.417000       1.00800           0
     27273 TIP3     3345     TIP3     H2       HT       0.417000       1.00800           0
     27274 TIP3     3346     TIP3     OH2      OT      -0.834000       15.9994           0
     27275 TIP3     3346     TIP3     H1       HT       0.417000       1.00800           0
     27276 TIP3     3346     TIP3     H2       HT       0.417000       1.00800           0
     27277 TIP3     3347     TIP3     OH2      OT      -0.834000       15.9994           0
     27278 TIP3     3347     TIP3     H1       HT       0.417000       1.00800           0
     27279 TIP3     3347     TIP3     H2       HT       0.417000       1.00800           0
     27280 TIP3     3348     TIP3     OH2      OT      -0.834000       15.9994           0
     27281 TIP3     3348     TIP3     H1       HT       0.417000       1.00800           0
     27282 TIP3     3348     TIP3     H2       HT       0.417000       1.00800           0
     27283 TIP3     3349     TIP3     OH2      OT      -0.834000       15.9994           0
     27284 TIP3     3349     TIP3     H1       HT       0.417000       1.00800           0
     27285 TIP3     3349     TIP3     H2       HT       0.417000       1.00800           0
     27286 TIP3     3350     TIP3     OH2      OT      -0.834000       15.9994           0
     27287 TIP3     3350     TIP3     H1       HT       0.417000       1.00800           0
     27288 TIP3     3350     TIP3     H2       HT       0.417000       1.00800           0
     27289 TIP3     3351     TIP3     OH2      OT      -0.834000       15.9994           0
     27290 TIP3     3351     TIP3     H1       HT       0.417000       1.00800           0
     27291 TIP3     3351     TIP3     H2       HT       0.417000       1.00800           0
     27292 TIP3     3352     TIP3     OH2      OT      -0.834000       15.9994           0
     27293 TIP3     3352     TIP3     H1       HT       0.417000       1.00800           0
     27294 TIP3     3352     TIP3     H2       HT       0.417000       1.00800           0
     27295 TIP3     3353     TIP3     OH2      OT      -0.834000       15.9994           0
     27296 TIP3     3353     TIP3     H1       HT       0.417000       1.00800           0
     27297 TIP3     3353     TIP3     H2       HT       0.417000       1.00800           0
     27298 TIP3     3354     TIP3     OH2      OT      -0.834000       15.9994           0
     27299 TIP3     3354     TIP3     H1       HT       0.417000       1.00800           0
     27300 TIP3     3354     TIP3     H2       HT       0.417000       1.00800           0
     27301 TIP3     3355     TIP3     OH2      OT      -0.834000       15.9994           0
     27302 TIP3     3355     TIP3     H1       HT       0.417000       1.00800           0
     27303 TIP3     3355     TIP3     H2       HT       0.417000       1.00800           0
     27304 TIP3     3356     TIP3     OH2      OT      -0.834000       15.9994           0
     27305 TIP3     3356     TIP3     H1       HT       0.417000       1.00800           0
     27306 TIP3     3356     TIP3     H2       HT       0.417000       1.00800           0
     27307 TIP3     3357     TIP3     OH2      OT      -0.834000       15.9994           0
     27308 TIP3     3357     TIP3     H1       HT       0.417000       1.00800           0
     27309 TIP3     3357     TIP3     H2       HT       0.417000       1.00800           0
     27310 TIP3     3358     TIP3     OH2      OT      -0.834000       15.9994           0
     27311 TIP3     3358     TIP3     H1       HT       0.417000       1.00800           0
     27312 TIP3     3358     TIP3     H2       HT       0.417000       1.00800           0
     27313 TIP3     3359     TIP3     OH2      OT      -0.834000       15.9994           0
     27314 TIP3     3359     TIP3     H1       HT       0.417000       1.00800           0
     27315 TIP3     3359     TIP3     H2       HT       0.417000       1.00800           0
     27316 TIP3     3360     TIP3     OH2      OT      -0.834000       15.9994           0
     27317 TIP3     3360     TIP3     H1       HT       0.417000       1.00800           0
     27318 TIP3     3360     TIP3     H2       HT       0.417000       1.00800           0
     27319 TIP3     3361     TIP3     OH2      OT      -0.834000       15.9994           0
     27320 TIP3     3361     TIP3     H1       HT       0.417000       1.00800           0
     27321 TIP3     3361     TIP3     H2       HT       0.417000       1.00800           0
     27322 TIP3     3362     TIP3     OH2      OT      -0.834000       15.9994           0
     27323 TIP3     3362     TIP3     H1       HT       0.417000       1.00800           0
     27324 TIP3     3362     TIP3     H2       HT       0.417000       1.00800           0
     27325 TIP3     3363     TIP3     OH2      OT      -0.834000       15.9994           0
     27326 TIP3     3363     TIP3     H1       HT       0.417000       1.00800           0
     27327 TIP3     3363     TIP3     H2       HT       0.417000       1.00800           0
     27328 TIP3     3364     TIP3     OH2      OT      -0.834000       15.9994           0
     27329 TIP3     3364     TIP3     H1       HT       0.417000       1.00800           0
     27330 TIP3     3364     TIP3     H2       HT       0.417000       1.00800           0
     27331 TIP3     3365     TIP3     OH2      OT      -0.834000       15.9994           0
     27332 TIP3     3365     TIP3     H1       HT       0.417000       1.00800           0
     27333 TIP3     3365     TIP3     H2       HT       0.417000       1.00800           0
     27334 TIP3     3366     TIP3     OH2      OT      -0.834000       15.9994           0
     27335 TIP3     3366     TIP3     H1       HT       0.417000       1.00800           0
     27336 TIP3     3366     TIP3     H2       HT       0.417000       1.00800           0
     27337 TIP3     3367     TIP3     OH2      OT      -0.834000       15.9994           0
     27338 TIP3     3367     TIP3     H1       HT       0.417000       1.00800           0
     27339 TIP3     3367     TIP3     H2       HT       0.417000       1.00800           0
     27340 TIP3     3368     TIP3     OH2      OT      -0.834000       15.9994           0
     27341 TIP3     3368     TIP3     H1       HT       0.417000       1.00800           0
     27342 TIP3     3368     TIP3     H2       HT       0.417000       1.00800           0
     27343 TIP3     3369     TIP3     OH2      OT      -0.834000       15.9994           0
     27344 TIP3     3369     TIP3     H1       HT       0.417000       1.00800           0
     27345 TIP3     3369     TIP3     H2       HT       0.417000       1.00800           0
     27346 TIP3     3370     TIP3     OH2      OT      -0.834000       15.9994           0
     27347 TIP3     3370     TIP3     H1       HT       0.417000       1.00800           0
     27348 TIP3     3370     TIP3     H2       HT       0.417000       1.00800           0
     27349 TIP3     3371     TIP3     OH2      OT      -0.834000       15.9994           0
     27350 TIP3     3371     TIP3     H1       HT       0.417000       1.00800           0
     27351 TIP3     3371     TIP3     H2       HT       0.417000       1.00800           0
     27352 TIP3     3372     TIP3     OH2      OT      -0.834000       15.9994           0
     27353 TIP3     3372     TIP3     H1       HT       0.417000       1.00800           0
     27354 TIP3     3372     TIP3     H2       HT       0.417000       1.00800           0
     27355 TIP3     3373     TIP3     OH2      OT      -0.834000       15.9994           0
     27356 TIP3     3373     TIP3     H1       HT       0.417000       1.00800           0
     27357 TIP3     3373     TIP3     H2       HT       0.417000       1.00800           0
     27358 TIP3     3374     TIP3     OH2      OT      -0.834000       15.9994           0
     27359 TIP3     3374     TIP3     H1       HT       0.417000       1.00800           0
     27360 TIP3     3374     TIP3     H2       HT       0.417000       1.00800           0
     27361 TIP3     3375     TIP3     OH2      OT      -0.834000       15.9994           0
     27362 TIP3     3375     TIP3     H1       HT       0.417000       1.00800           0
     27363 TIP3     3375     TIP3     H2       HT       0.417000       1.00800           0
     27364 TIP3     3376     TIP3     OH2      OT      -0.834000       15.9994           0
     27365 TIP3     3376     TIP3     H1       HT       0.417000       1.00800           0
     27366 TIP3     3376     TIP3     H2       HT       0.417000       1.00800           0
     27367 TIP3     3377     TIP3     OH2      OT      -0.834000       15.9994           0
     27368 TIP3     3377     TIP3     H1       HT       0.417000       1.00800           0
     27369 TIP3     3377     TIP3     H2       HT       0.417000       1.00800           0
     27370 TIP3     3378     TIP3     OH2      OT      -0.834000       15.9994           0
     27371 TIP3     3378     TIP3     H1       HT       0.417000       1.00800           0
     27372 TIP3     3378     TIP3     H2       HT       0.417000       1.00800           0
     27373 TIP3     3379     TIP3     OH2      OT      -0.834000       15.9994           0
     27374 TIP3     3379     TIP3     H1       HT       0.417000       1.00800           0
     27375 TIP3     3379     TIP3     H2       HT       0.417000       1.00800           0
     27376 TIP3     3380     TIP3     OH2      OT      -0.834000       15.9994           0
     27377 TIP3     3380     TIP3     H1       HT       0.417000       1.00800           0
     27378 TIP3     3380     TIP3     H2       HT       0.417000       1.00800           0
     27379 TIP3     3381     TIP3     OH2      OT      -0.834000       15.9994           0
     27380 TIP3     3381     TIP3     H1       HT       0.417000       1.00800           0
     27381 TIP3     3381     TIP3     H2       HT       0.417000       1.00800           0
     27382 TIP3     3382     TIP3     OH2      OT      -0.834000       15.9994           0
     27383 TIP3     3382     TIP3     H1       HT       0.417000       1.00800           0
     27384 TIP3     3382     TIP3     H2       HT       0.417000       1.00800           0
     27385 TIP3     3383     TIP3     OH2      OT      -0.834000       15.9994           0
     27386 TIP3     3383     TIP3     H1       HT       0.417000       1.00800           0
     27387 TIP3     3383     TIP3     H2       HT       0.417000       1.00800           0
     27388 TIP3     3384     TIP3     OH2      OT      -0.834000       15.9994           0
     27389 TIP3     3384     TIP3     H1       HT       0.417000       1.00800           0
     27390 TIP3     3384     TIP3     H2       HT       0.417000       1.00800           0
     27391 TIP3     3385     TIP3     OH2      OT      -0.834000       15.9994           0
     27392 TIP3     3385     TIP3     H1       HT       0.417000       1.00800           0
     27393 TIP3     3385     TIP3     H2       HT       0.417000       1.00800           0
     27394 TIP3     3386     TIP3     OH2      OT      -0.834000       15.9994           0
     27395 TIP3     3386     TIP3     H1       HT       0.417000       1.00800           0
     27396 TIP3     3386     TIP3     H2       HT       0.417000       1.00800           0
     27397 TIP3     3387     TIP3     OH2      OT      -0.834000       15.9994           0
     27398 TIP3     3387     TIP3     H1       HT       0.417000       1.00800           0
     27399 TIP3     3387     TIP3     H2       HT       0.417000       1.00800           0
     27400 TIP3     3388     TIP3     OH2      OT      -0.834000       15.9994           0
     27401 TIP3     3388     TIP3     H1       HT       0.417000       1.00800           0
     27402 TIP3     3388     TIP3     H2       HT       0.417000       1.00800           0
     27403 TIP3     3389     TIP3     OH2      OT      -0.834000       15.9994           0
     27404 TIP3     3389     TIP3     H1       HT       0.417000       1.00800           0
     27405 TIP3     3389     TIP3     H2       HT       0.417000       1.00800           0
     27406 TIP3     3390     TIP3     OH2      OT      -0.834000       15.9994           0
     27407 TIP3     3390     TIP3     H1       HT       0.417000       1.00800           0
     27408 TIP3     3390     TIP3     H2       HT       0.417000       1.00800           0
     27409 TIP3     3391     TIP3     OH2      OT      -0.834000       15.9994           0
     27410 TIP3     3391     TIP3     H1       HT       0.417000       1.00800           0
     27411 TIP3     3391     TIP3     H2       HT       0.417000       1.00800           0
     27412 TIP3     3392     TIP3     OH2      OT      -0.834000       15.9994           0
     27413 TIP3     3392     TIP3     H1       HT       0.417000       1.00800           0
     27414 TIP3     3392     TIP3     H2       HT       0.417000       1.00800           0
     27415 TIP3     3393     TIP3     OH2      OT      -0.834000       15.9994           0
     27416 TIP3     3393     TIP3     H1       HT       0.417000       1.00800           0
     27417 TIP3     3393     TIP3     H2       HT       0.417000       1.00800           0
     27418 TIP3     3394     TIP3     OH2      OT      -0.834000       15.9994           0
     27419 TIP3     3394     TIP3     H1       HT       0.417000       1.00800           0
     27420 TIP3     3394     TIP3     H2       HT       0.417000       1.00800           0
     27421 TIP3     3395     TIP3     OH2      OT      -0.834000       15.9994           0
     27422 TIP3     3395     TIP3     H1       HT       0.417000       1.00800           0
     27423 TIP3     3395     TIP3     H2       HT       0.417000       1.00800           0
     27424 TIP3     3396     TIP3     OH2      OT      -0.834000       15.9994           0
     27425 TIP3     3396     TIP3     H1       HT       0.417000       1.00800           0
     27426 TIP3     3396     TIP3     H2       HT       0.417000       1.00800           0
     27427 TIP3     3397     TIP3     OH2      OT      -0.834000       15.9994           0
     27428 TIP3     3397     TIP3     H1       HT       0.417000       1.00800           0
     27429 TIP3     3397     TIP3     H2       HT       0.417000       1.00800           0
     27430 TIP3     3398     TIP3     OH2      OT      -0.834000       15.9994           0
     27431 TIP3     3398     TIP3     H1       HT       0.417000       1.00800           0
     27432 TIP3     3398     TIP3     H2       HT       0.417000       1.00800           0
     27433 TIP3     3399     TIP3     OH2      OT      -0.834000       15.9994           0
     27434 TIP3     3399     TIP3     H1       HT       0.417000       1.00800           0
     27435 TIP3     3399     TIP3     H2       HT       0.417000       1.00800           0
     27436 TIP3     3400     TIP3     OH2      OT      -0.834000       15.9994           0
     27437 TIP3     3400     TIP3     H1       HT       0.417000       1.00800           0
     27438 TIP3     3400     TIP3     H2       HT       0.417000       1.00800           0
     27439 TIP3     3401     TIP3     OH2      OT      -0.834000       15.9994           0
     27440 TIP3     3401     TIP3     H1       HT       0.417000       1.00800           0
     27441 TIP3     3401     TIP3     H2       HT       0.417000       1.00800           0
     27442 TIP3     3402     TIP3     OH2      OT      -0.834000       15.9994           0
     27443 TIP3     3402     TIP3     H1       HT       0.417000       1.00800           0
     27444 TIP3     3402     TIP3     H2       HT       0.417000       1.00800           0
     27445 TIP3     3403     TIP3     OH2      OT      -0.834000       15.9994           0
     27446 TIP3     3403     TIP3     H1       HT       0.417000       1.00800           0
     27447 TIP3     3403     TIP3     H2       HT       0.417000       1.00800           0
     27448 TIP3     3404     TIP3     OH2      OT      -0.834000       15.9994           0
     27449 TIP3     3404     TIP3     H1       HT       0.417000       1.00800           0
     27450 TIP3     3404     TIP3     H2       HT       0.417000       1.00800           0
     27451 TIP3     3405     TIP3     OH2      OT      -0.834000       15.9994           0
     27452 TIP3     3405     TIP3     H1       HT       0.417000       1.00800           0
     27453 TIP3     3405     TIP3     H2       HT       0.417000       1.00800           0
     27454 TIP3     3406     TIP3     OH2      OT      -0.834000       15.9994           0
     27455 TIP3     3406     TIP3     H1       HT       0.417000       1.00800           0
     27456 TIP3     3406     TIP3     H2       HT       0.417000       1.00800           0
     27457 TIP3     3407     TIP3     OH2      OT      -0.834000       15.9994           0
     27458 TIP3     3407     TIP3     H1       HT       0.417000       1.00800           0
     27459 TIP3     3407     TIP3     H2       HT       0.417000       1.00800           0
     27460 TIP3     3408     TIP3     OH2      OT      -0.834000       15.9994           0
     27461 TIP3     3408     TIP3     H1       HT       0.417000       1.00800           0
     27462 TIP3     3408     TIP3     H2       HT       0.417000       1.00800           0
     27463 TIP3     3409     TIP3     OH2      OT      -0.834000       15.9994           0
     27464 TIP3     3409     TIP3     H1       HT       0.417000       1.00800           0
     27465 TIP3     3409     TIP3     H2       HT       0.417000       1.00800           0
     27466 TIP3     3410     TIP3     OH2      OT      -0.834000       15.9994           0
     27467 TIP3     3410     TIP3     H1       HT       0.417000       1.00800           0
     27468 TIP3     3410     TIP3     H2       HT       0.417000       1.00800           0
     27469 TIP3     3411     TIP3     OH2      OT      -0.834000       15.9994           0
     27470 TIP3     3411     TIP3     H1       HT       0.417000       1.00800           0
     27471 TIP3     3411     TIP3     H2       HT       0.417000       1.00800           0
     27472 TIP3     3412     TIP3     OH2      OT      -0.834000       15.9994           0
     27473 TIP3     3412     TIP3     H1       HT       0.417000       1.00800           0
     27474 TIP3     3412     TIP3     H2       HT       0.417000       1.00800           0
     27475 TIP3     3413     TIP3     OH2      OT      -0.834000       15.9994           0
     27476 TIP3     3413     TIP3     H1       HT       0.417000       1.00800           0
     27477 TIP3     3413     TIP3     H2       HT       0.417000       1.00800           0
     27478 TIP3     3414     TIP3     OH2      OT      -0.834000       15.9994           0
     27479 TIP3     3414     TIP3     H1       HT       0.417000       1.00800           0
     27480 TIP3     3414     TIP3     H2       HT       0.417000       1.00800           0
     27481 TIP3     3415     TIP3     OH2      OT      -0.834000       15.9994           0
     27482 TIP3     3415     TIP3     H1       HT       0.417000       1.00800           0
     27483 TIP3     3415     TIP3     H2       HT       0.417000       1.00800           0
     27484 TIP3     3416     TIP3     OH2      OT      -0.834000       15.9994           0
     27485 TIP3     3416     TIP3     H1       HT       0.417000       1.00800           0
     27486 TIP3     3416     TIP3     H2       HT       0.417000       1.00800           0
     27487 TIP3     3417     TIP3     OH2      OT      -0.834000       15.9994           0
     27488 TIP3     3417     TIP3     H1       HT       0.417000       1.00800           0
     27489 TIP3     3417     TIP3     H2       HT       0.417000       1.00800           0
     27490 TIP3     3418     TIP3     OH2      OT      -0.834000       15.9994           0
     27491 TIP3     3418     TIP3     H1       HT       0.417000       1.00800           0
     27492 TIP3     3418     TIP3     H2       HT       0.417000       1.00800           0
     27493 TIP3     3419     TIP3     OH2      OT      -0.834000       15.9994           0
     27494 TIP3     3419     TIP3     H1       HT       0.417000       1.00800           0
     27495 TIP3     3419     TIP3     H2       HT       0.417000       1.00800           0
     27496 TIP3     3420     TIP3     OH2      OT      -0.834000       15.9994           0
     27497 TIP3     3420     TIP3     H1       HT       0.417000       1.00800           0
     27498 TIP3     3420     TIP3     H2       HT       0.417000       1.00800           0
     27499 TIP3     3421     TIP3     OH2      OT      -0.834000       15.9994           0
     27500 TIP3     3421     TIP3     H1       HT       0.417000       1.00800           0
     27501 TIP3     3421     TIP3     H2       HT       0.417000       1.00800           0
     27502 TIP3     3422     TIP3     OH2      OT      -0.834000       15.9994           0
     27503 TIP3     3422     TIP3     H1       HT       0.417000       1.00800           0
     27504 TIP3     3422     TIP3     H2       HT       0.417000       1.00800           0
     27505 TIP3     3423     TIP3     OH2      OT      -0.834000       15.9994           0
     27506 TIP3     3423     TIP3     H1       HT       0.417000       1.00800           0
     27507 TIP3     3423     TIP3     H2       HT       0.417000       1.00800           0
     27508 TIP3     3424     TIP3     OH2      OT      -0.834000       15.9994           0
     27509 TIP3     3424     TIP3     H1       HT       0.417000       1.00800           0
     27510 TIP3     3424     TIP3     H2       HT       0.417000       1.00800           0
     27511 TIP3     3425     TIP3     OH2      OT      -0.834000       15.9994           0
     27512 TIP3     3425     TIP3     H1       HT       0.417000       1.00800           0
     27513 TIP3     3425     TIP3     H2       HT       0.417000       1.00800           0
     27514 TIP3     3426     TIP3     OH2      OT      -0.834000       15.9994           0
     27515 TIP3     3426     TIP3     H1       HT       0.417000       1.00800           0
     27516 TIP3     3426     TIP3     H2       HT       0.417000       1.00800           0
     27517 TIP3     3427     TIP3     OH2      OT      -0.834000       15.9994           0
     27518 TIP3     3427     TIP3     H1       HT       0.417000       1.00800           0
     27519 TIP3     3427     TIP3     H2       HT       0.417000       1.00800           0
     27520 TIP3     3428     TIP3     OH2      OT      -0.834000       15.9994           0
     27521 TIP3     3428     TIP3     H1       HT       0.417000       1.00800           0
     27522 TIP3     3428     TIP3     H2       HT       0.417000       1.00800           0
     27523 TIP3     3429     TIP3     OH2      OT      -0.834000       15.9994           0
     27524 TIP3     3429     TIP3     H1       HT       0.417000       1.00800           0
     27525 TIP3     3429     TIP3     H2       HT       0.417000       1.00800           0
     27526 TIP3     3430     TIP3     OH2      OT      -0.834000       15.9994           0
     27527 TIP3     3430     TIP3     H1       HT       0.417000       1.00800           0
     27528 TIP3     3430     TIP3     H2       HT       0.417000       1.00800           0
     27529 TIP3     3431     TIP3     OH2      OT      -0.834000       15.9994           0
     27530 TIP3     3431     TIP3     H1       HT       0.417000       1.00800           0
     27531 TIP3     3431     TIP3     H2       HT       0.417000       1.00800           0
     27532 TIP3     3432     TIP3     OH2      OT      -0.834000       15.9994           0
     27533 TIP3     3432     TIP3     H1       HT       0.417000       1.00800           0
     27534 TIP3     3432     TIP3     H2       HT       0.417000       1.00800           0
     27535 TIP3     3433     TIP3     OH2      OT      -0.834000       15.9994           0
     27536 TIP3     3433     TIP3     H1       HT       0.417000       1.00800           0
     27537 TIP3     3433     TIP3     H2       HT       0.417000       1.00800           0
     27538 TIP3     3434     TIP3     OH2      OT      -0.834000       15.9994           0
     27539 TIP3     3434     TIP3     H1       HT       0.417000       1.00800           0
     27540 TIP3     3434     TIP3     H2       HT       0.417000       1.00800           0
     27541 TIP3     3435     TIP3     OH2      OT      -0.834000       15.9994           0
     27542 TIP3     3435     TIP3     H1       HT       0.417000       1.00800           0
     27543 TIP3     3435     TIP3     H2       HT       0.417000       1.00800           0
     27544 TIP3     3436     TIP3     OH2      OT      -0.834000       15.9994           0
     27545 TIP3     3436     TIP3     H1       HT       0.417000       1.00800           0
     27546 TIP3     3436     TIP3     H2       HT       0.417000       1.00800           0
     27547 TIP3     3437     TIP3     OH2      OT      -0.834000       15.9994           0
     27548 TIP3     3437     TIP3     H1       HT       0.417000       1.00800           0
     27549 TIP3     3437     TIP3     H2       HT       0.417000       1.00800           0
     27550 TIP3     3438     TIP3     OH2      OT      -0.834000       15.9994           0
     27551 TIP3     3438     TIP3     H1       HT       0.417000       1.00800           0
     27552 TIP3     3438     TIP3     H2       HT       0.417000       1.00800           0
     27553 TIP3     3439     TIP3     OH2      OT      -0.834000       15.9994           0
     27554 TIP3     3439     TIP3     H1       HT       0.417000       1.00800           0
     27555 TIP3     3439     TIP3     H2       HT       0.417000       1.00800           0
     27556 TIP3     3440     TIP3     OH2      OT      -0.834000       15.9994           0
     27557 TIP3     3440     TIP3     H1       HT       0.417000       1.00800           0
     27558 TIP3     3440     TIP3     H2       HT       0.417000       1.00800           0
     27559 TIP3     3441     TIP3     OH2      OT      -0.834000       15.9994           0
     27560 TIP3     3441     TIP3     H1       HT       0.417000       1.00800           0
     27561 TIP3     3441     TIP3     H2       HT       0.417000       1.00800           0
     27562 TIP3     3442     TIP3     OH2      OT      -0.834000       15.9994           0
     27563 TIP3     3442     TIP3     H1       HT       0.417000       1.00800           0
     27564 TIP3     3442     TIP3     H2       HT       0.417000       1.00800           0
     27565 TIP3     3443     TIP3     OH2      OT      -0.834000       15.9994           0
     27566 TIP3     3443     TIP3     H1       HT       0.417000       1.00800           0
     27567 TIP3     3443     TIP3     H2       HT       0.417000       1.00800           0
     27568 TIP3     3444     TIP3     OH2      OT      -0.834000       15.9994           0
     27569 TIP3     3444     TIP3     H1       HT       0.417000       1.00800           0
     27570 TIP3     3444     TIP3     H2       HT       0.417000       1.00800           0
     27571 TIP3     3445     TIP3     OH2      OT      -0.834000       15.9994           0
     27572 TIP3     3445     TIP3     H1       HT       0.417000       1.00800           0
     27573 TIP3     3445     TIP3     H2       HT       0.417000       1.00800           0
     27574 TIP3     3446     TIP3     OH2      OT      -0.834000       15.9994           0
     27575 TIP3     3446     TIP3     H1       HT       0.417000       1.00800           0
     27576 TIP3     3446     TIP3     H2       HT       0.417000       1.00800           0
     27577 TIP3     3447     TIP3     OH2      OT      -0.834000       15.9994           0
     27578 TIP3     3447     TIP3     H1       HT       0.417000       1.00800           0
     27579 TIP3     3447     TIP3     H2       HT       0.417000       1.00800           0
     27580 TIP3     3448     TIP3     OH2      OT      -0.834000       15.9994           0
     27581 TIP3     3448     TIP3     H1       HT       0.417000       1.00800           0
     27582 TIP3     3448     TIP3     H2       HT       0.417000       1.00800           0
     27583 TIP3     3449     TIP3     OH2      OT      -0.834000       15.9994           0
     27584 TIP3     3449     TIP3     H1       HT       0.417000       1.00800           0
     27585 TIP3     3449     TIP3     H2       HT       0.417000       1.00800           0
     27586 TIP3     3450     TIP3     OH2      OT      -0.834000       15.9994           0
     27587 TIP3     3450     TIP3     H1       HT       0.417000       1.00800           0
     27588 TIP3     3450     TIP3     H2       HT       0.417000       1.00800           0
     27589 TIP3     3451     TIP3     OH2      OT      -0.834000       15.9994           0
     27590 TIP3     3451     TIP3     H1       HT       0.417000       1.00800           0
     27591 TIP3     3451     TIP3     H2       HT       0.417000       1.00800           0
     27592 TIP3     3452     TIP3     OH2      OT      -0.834000       15.9994           0
     27593 TIP3     3452     TIP3     H1       HT       0.417000       1.00800           0
     27594 TIP3     3452     TIP3     H2       HT       0.417000       1.00800           0
     27595 TIP3     3453     TIP3     OH2      OT      -0.834000       15.9994           0
     27596 TIP3     3453     TIP3     H1       HT       0.417000       1.00800           0
     27597 TIP3     3453     TIP3     H2       HT       0.417000       1.00800           0
     27598 TIP3     3454     TIP3     OH2      OT      -0.834000       15.9994           0
     27599 TIP3     3454     TIP3     H1       HT       0.417000       1.00800           0
     27600 TIP3     3454     TIP3     H2       HT       0.417000       1.00800           0
     27601 TIP3     3455     TIP3     OH2      OT      -0.834000       15.9994           0
     27602 TIP3     3455     TIP3     H1       HT       0.417000       1.00800           0
     27603 TIP3     3455     TIP3     H2       HT       0.417000       1.00800           0
     27604 TIP3     3456     TIP3     OH2      OT      -0.834000       15.9994           0
     27605 TIP3     3456     TIP3     H1       HT       0.417000       1.00800           0
     27606 TIP3     3456     TIP3     H2       HT       0.417000       1.00800           0
     27607 TIP3     3457     TIP3     OH2      OT      -0.834000       15.9994           0
     27608 TIP3     3457     TIP3     H1       HT       0.417000       1.00800           0
     27609 TIP3     3457     TIP3     H2       HT       0.417000       1.00800           0
     27610 TIP3     3458     TIP3     OH2      OT      -0.834000       15.9994           0
     27611 TIP3     3458     TIP3     H1       HT       0.417000       1.00800           0
     27612 TIP3     3458     TIP3     H2       HT       0.417000       1.00800           0
     27613 TIP3     3459     TIP3     OH2      OT      -0.834000       15.9994           0
     27614 TIP3     3459     TIP3     H1       HT       0.417000       1.00800           0
     27615 TIP3     3459     TIP3     H2       HT       0.417000       1.00800           0
     27616 TIP3     3460     TIP3     OH2      OT      -0.834000       15.9994           0
     27617 TIP3     3460     TIP3     H1       HT       0.417000       1.00800           0
     27618 TIP3     3460     TIP3     H2       HT       0.417000       1.00800           0
     27619 TIP3     3461     TIP3     OH2      OT      -0.834000       15.9994           0
     27620 TIP3     3461     TIP3     H1       HT       0.417000       1.00800           0
     27621 TIP3     3461     TIP3     H2       HT       0.417000       1.00800           0
     27622 TIP3     3462     TIP3     OH2      OT      -0.834000       15.9994           0
     27623 TIP3     3462     TIP3     H1       HT       0.417000       1.00800           0
     27624 TIP3     3462     TIP3     H2       HT       0.417000       1.00800           0
     27625 TIP3     3463     TIP3     OH2      OT      -0.834000       15.9994           0
     27626 TIP3     3463     TIP3     H1       HT       0.417000       1.00800           0
     27627 TIP3     3463     TIP3     H2       HT       0.417000       1.00800           0
     27628 TIP3     3464     TIP3     OH2      OT      -0.834000       15.9994           0
     27629 TIP3     3464     TIP3     H1       HT       0.417000       1.00800           0
     27630 TIP3     3464     TIP3     H2       HT       0.417000       1.00800           0
     27631 TIP3     3465     TIP3     OH2      OT      -0.834000       15.9994           0
     27632 TIP3     3465     TIP3     H1       HT       0.417000       1.00800           0
     27633 TIP3     3465     TIP3     H2       HT       0.417000       1.00800           0
     27634 TIP3     3466     TIP3     OH2      OT      -0.834000       15.9994           0
     27635 TIP3     3466     TIP3     H1       HT       0.417000       1.00800           0
     27636 TIP3     3466     TIP3     H2       HT       0.417000       1.00800           0
     27637 TIP3     3467     TIP3     OH2      OT      -0.834000       15.9994           0
     27638 TIP3     3467     TIP3     H1       HT       0.417000       1.00800           0
     27639 TIP3     3467     TIP3     H2       HT       0.417000       1.00800           0
     27640 TIP3     3468     TIP3     OH2      OT      -0.834000       15.9994           0
     27641 TIP3     3468     TIP3     H1       HT       0.417000       1.00800           0
     27642 TIP3     3468     TIP3     H2       HT       0.417000       1.00800           0
     27643 TIP3     3469     TIP3     OH2      OT      -0.834000       15.9994           0
     27644 TIP3     3469     TIP3     H1       HT       0.417000       1.00800           0
     27645 TIP3     3469     TIP3     H2       HT       0.417000       1.00800           0
     27646 TIP3     3470     TIP3     OH2      OT      -0.834000       15.9994           0
     27647 TIP3     3470     TIP3     H1       HT       0.417000       1.00800           0
     27648 TIP3     3470     TIP3     H2       HT       0.417000       1.00800           0
     27649 TIP3     3471     TIP3     OH2      OT      -0.834000       15.9994           0
     27650 TIP3     3471     TIP3     H1       HT       0.417000       1.00800           0
     27651 TIP3     3471     TIP3     H2       HT       0.417000       1.00800           0
     27652 TIP3     3472     TIP3     OH2      OT      -0.834000       15.9994           0
     27653 TIP3     3472     TIP3     H1       HT       0.417000       1.00800           0
     27654 TIP3     3472     TIP3     H2       HT       0.417000       1.00800           0
     27655 TIP3     3473     TIP3     OH2      OT      -0.834000       15.9994           0
     27656 TIP3     3473     TIP3     H1       HT       0.417000       1.00800           0
     27657 TIP3     3473     TIP3     H2       HT       0.417000       1.00800           0
     27658 TIP3     3474     TIP3     OH2      OT      -0.834000       15.9994           0
     27659 TIP3     3474     TIP3     H1       HT       0.417000       1.00800           0
     27660 TIP3     3474     TIP3     H2       HT       0.417000       1.00800           0
     27661 TIP3     3475     TIP3     OH2      OT      -0.834000       15.9994           0
     27662 TIP3     3475     TIP3     H1       HT       0.417000       1.00800           0
     27663 TIP3     3475     TIP3     H2       HT       0.417000       1.00800           0
     27664 TIP3     3476     TIP3     OH2      OT      -0.834000       15.9994           0
     27665 TIP3     3476     TIP3     H1       HT       0.417000       1.00800           0
     27666 TIP3     3476     TIP3     H2       HT       0.417000       1.00800           0
     27667 TIP3     3477     TIP3     OH2      OT      -0.834000       15.9994           0
     27668 TIP3     3477     TIP3     H1       HT       0.417000       1.00800           0
     27669 TIP3     3477     TIP3     H2       HT       0.417000       1.00800           0
     27670 TIP3     3478     TIP3     OH2      OT      -0.834000       15.9994           0
     27671 TIP3     3478     TIP3     H1       HT       0.417000       1.00800           0
     27672 TIP3     3478     TIP3     H2       HT       0.417000       1.00800           0
     27673 TIP3     3479     TIP3     OH2      OT      -0.834000       15.9994           0
     27674 TIP3     3479     TIP3     H1       HT       0.417000       1.00800           0
     27675 TIP3     3479     TIP3     H2       HT       0.417000       1.00800           0
     27676 TIP3     3480     TIP3     OH2      OT      -0.834000       15.9994           0
     27677 TIP3     3480     TIP3     H1       HT       0.417000       1.00800           0
     27678 TIP3     3480     TIP3     H2       HT       0.417000       1.00800           0
     27679 TIP3     3481     TIP3     OH2      OT      -0.834000       15.9994           0
     27680 TIP3     3481     TIP3     H1       HT       0.417000       1.00800           0
     27681 TIP3     3481     TIP3     H2       HT       0.417000       1.00800           0
     27682 TIP3     3482     TIP3     OH2      OT      -0.834000       15.9994           0
     27683 TIP3     3482     TIP3     H1       HT       0.417000       1.00800           0
     27684 TIP3     3482     TIP3     H2       HT       0.417000       1.00800           0
     27685 TIP3     3483     TIP3     OH2      OT      -0.834000       15.9994           0
     27686 TIP3     3483     TIP3     H1       HT       0.417000       1.00800           0
     27687 TIP3     3483     TIP3     H2       HT       0.417000       1.00800           0
     27688 TIP3     3484     TIP3     OH2      OT      -0.834000       15.9994           0
     27689 TIP3     3484     TIP3     H1       HT       0.417000       1.00800           0
     27690 TIP3     3484     TIP3     H2       HT       0.417000       1.00800           0
     27691 TIP3     3485     TIP3     OH2      OT      -0.834000       15.9994           0
     27692 TIP3     3485     TIP3     H1       HT       0.417000       1.00800           0
     27693 TIP3     3485     TIP3     H2       HT       0.417000       1.00800           0
     27694 TIP3     3486     TIP3     OH2      OT      -0.834000       15.9994           0
     27695 TIP3     3486     TIP3     H1       HT       0.417000       1.00800           0
     27696 TIP3     3486     TIP3     H2       HT       0.417000       1.00800           0
     27697 TIP3     3487     TIP3     OH2      OT      -0.834000       15.9994           0
     27698 TIP3     3487     TIP3     H1       HT       0.417000       1.00800           0
     27699 TIP3     3487     TIP3     H2       HT       0.417000       1.00800           0
     27700 TIP3     3488     TIP3     OH2      OT      -0.834000       15.9994           0
     27701 TIP3     3488     TIP3     H1       HT       0.417000       1.00800           0
     27702 TIP3     3488     TIP3     H2       HT       0.417000       1.00800           0
     27703 TIP3     3489     TIP3     OH2      OT      -0.834000       15.9994           0
     27704 TIP3     3489     TIP3     H1       HT       0.417000       1.00800           0
     27705 TIP3     3489     TIP3     H2       HT       0.417000       1.00800           0
     27706 TIP3     3490     TIP3     OH2      OT      -0.834000       15.9994           0
     27707 TIP3     3490     TIP3     H1       HT       0.417000       1.00800           0
     27708 TIP3     3490     TIP3     H2       HT       0.417000       1.00800           0
     27709 TIP3     3491     TIP3     OH2      OT      -0.834000       15.9994           0
     27710 TIP3     3491     TIP3     H1       HT       0.417000       1.00800           0
     27711 TIP3     3491     TIP3     H2       HT       0.417000       1.00800           0
     27712 TIP3     3492     TIP3     OH2      OT      -0.834000       15.9994           0
     27713 TIP3     3492     TIP3     H1       HT       0.417000       1.00800           0
     27714 TIP3     3492     TIP3     H2       HT       0.417000       1.00800           0
     27715 TIP3     3493     TIP3     OH2      OT      -0.834000       15.9994           0
     27716 TIP3     3493     TIP3     H1       HT       0.417000       1.00800           0
     27717 TIP3     3493     TIP3     H2       HT       0.417000       1.00800           0
     27718 TIP3     3494     TIP3     OH2      OT      -0.834000       15.9994           0
     27719 TIP3     3494     TIP3     H1       HT       0.417000       1.00800           0
     27720 TIP3     3494     TIP3     H2       HT       0.417000       1.00800           0
     27721 TIP3     3495     TIP3     OH2      OT      -0.834000       15.9994           0
     27722 TIP3     3495     TIP3     H1       HT       0.417000       1.00800           0
     27723 TIP3     3495     TIP3     H2       HT       0.417000       1.00800           0
     27724 TIP3     3496     TIP3     OH2      OT      -0.834000       15.9994           0
     27725 TIP3     3496     TIP3     H1       HT       0.417000       1.00800           0
     27726 TIP3     3496     TIP3     H2       HT       0.417000       1.00800           0
     27727 TIP3     3497     TIP3     OH2      OT      -0.834000       15.9994           0
     27728 TIP3     3497     TIP3     H1       HT       0.417000       1.00800           0
     27729 TIP3     3497     TIP3     H2       HT       0.417000       1.00800           0
     27730 TIP3     3498     TIP3     OH2      OT      -0.834000       15.9994           0
     27731 TIP3     3498     TIP3     H1       HT       0.417000       1.00800           0
     27732 TIP3     3498     TIP3     H2       HT       0.417000       1.00800           0
     27733 TIP3     3499     TIP3     OH2      OT      -0.834000       15.9994           0
     27734 TIP3     3499     TIP3     H1       HT       0.417000       1.00800           0
     27735 TIP3     3499     TIP3     H2       HT       0.417000       1.00800           0
     27736 TIP3     3500     TIP3     OH2      OT      -0.834000       15.9994           0
     27737 TIP3     3500     TIP3     H1       HT       0.417000       1.00800           0
     27738 TIP3     3500     TIP3     H2       HT       0.417000       1.00800           0
     27739 TIP3     3501     TIP3     OH2      OT      -0.834000       15.9994           0
     27740 TIP3     3501     TIP3     H1       HT       0.417000       1.00800           0
     27741 TIP3     3501     TIP3     H2       HT       0.417000       1.00800           0
     27742 TIP3     3502     TIP3     OH2      OT      -0.834000       15.9994           0
     27743 TIP3     3502     TIP3     H1       HT       0.417000       1.00800           0
     27744 TIP3     3502     TIP3     H2       HT       0.417000       1.00800           0
     27745 TIP3     3503     TIP3     OH2      OT      -0.834000       15.9994           0
     27746 TIP3     3503     TIP3     H1       HT       0.417000       1.00800           0
     27747 TIP3     3503     TIP3     H2       HT       0.417000       1.00800           0
     27748 TIP3     3504     TIP3     OH2      OT      -0.834000       15.9994           0
     27749 TIP3     3504     TIP3     H1       HT       0.417000       1.00800           0
     27750 TIP3     3504     TIP3     H2       HT       0.417000       1.00800           0
     27751 TIP3     3505     TIP3     OH2      OT      -0.834000       15.9994           0
     27752 TIP3     3505     TIP3     H1       HT       0.417000       1.00800           0
     27753 TIP3     3505     TIP3     H2       HT       0.417000       1.00800           0
     27754 TIP3     3506     TIP3     OH2      OT      -0.834000       15.9994           0
     27755 TIP3     3506     TIP3     H1       HT       0.417000       1.00800           0
     27756 TIP3     3506     TIP3     H2       HT       0.417000       1.00800           0
     27757 TIP3     3507     TIP3     OH2      OT      -0.834000       15.9994           0
     27758 TIP3     3507     TIP3     H1       HT       0.417000       1.00800           0
     27759 TIP3     3507     TIP3     H2       HT       0.417000       1.00800           0
     27760 TIP3     3508     TIP3     OH2      OT      -0.834000       15.9994           0
     27761 TIP3     3508     TIP3     H1       HT       0.417000       1.00800           0
     27762 TIP3     3508     TIP3     H2       HT       0.417000       1.00800           0
     27763 TIP3     3509     TIP3     OH2      OT      -0.834000       15.9994           0
     27764 TIP3     3509     TIP3     H1       HT       0.417000       1.00800           0
     27765 TIP3     3509     TIP3     H2       HT       0.417000       1.00800           0
     27766 TIP3     3510     TIP3     OH2      OT      -0.834000       15.9994           0
     27767 TIP3     3510     TIP3     H1       HT       0.417000       1.00800           0
     27768 TIP3     3510     TIP3     H2       HT       0.417000       1.00800           0
     27769 TIP3     3511     TIP3     OH2      OT      -0.834000       15.9994           0
     27770 TIP3     3511     TIP3     H1       HT       0.417000       1.00800           0
     27771 TIP3     3511     TIP3     H2       HT       0.417000       1.00800           0
     27772 TIP3     3512     TIP3     OH2      OT      -0.834000       15.9994           0
     27773 TIP3     3512     TIP3     H1       HT       0.417000       1.00800           0
     27774 TIP3     3512     TIP3     H2       HT       0.417000       1.00800           0
     27775 TIP3     3513     TIP3     OH2      OT      -0.834000       15.9994           0
     27776 TIP3     3513     TIP3     H1       HT       0.417000       1.00800           0
     27777 TIP3     3513     TIP3     H2       HT       0.417000       1.00800           0
     27778 TIP3     3514     TIP3     OH2      OT      -0.834000       15.9994           0
     27779 TIP3     3514     TIP3     H1       HT       0.417000       1.00800           0
     27780 TIP3     3514     TIP3     H2       HT       0.417000       1.00800           0
     27781 TIP3     3515     TIP3     OH2      OT      -0.834000       15.9994           0
     27782 TIP3     3515     TIP3     H1       HT       0.417000       1.00800           0
     27783 TIP3     3515     TIP3     H2       HT       0.417000       1.00800           0
     27784 TIP3     3516     TIP3     OH2      OT      -0.834000       15.9994           0
     27785 TIP3     3516     TIP3     H1       HT       0.417000       1.00800           0
     27786 TIP3     3516     TIP3     H2       HT       0.417000       1.00800           0
     27787 TIP3     3517     TIP3     OH2      OT      -0.834000       15.9994           0
     27788 TIP3     3517     TIP3     H1       HT       0.417000       1.00800           0
     27789 TIP3     3517     TIP3     H2       HT       0.417000       1.00800           0
     27790 TIP3     3518     TIP3     OH2      OT      -0.834000       15.9994           0
     27791 TIP3     3518     TIP3     H1       HT       0.417000       1.00800           0
     27792 TIP3     3518     TIP3     H2       HT       0.417000       1.00800           0
     27793 TIP3     3519     TIP3     OH2      OT      -0.834000       15.9994           0
     27794 TIP3     3519     TIP3     H1       HT       0.417000       1.00800           0
     27795 TIP3     3519     TIP3     H2       HT       0.417000       1.00800           0
     27796 TIP3     3520     TIP3     OH2      OT      -0.834000       15.9994           0
     27797 TIP3     3520     TIP3     H1       HT       0.417000       1.00800           0
     27798 TIP3     3520     TIP3     H2       HT       0.417000       1.00800           0
     27799 TIP3     3521     TIP3     OH2      OT      -0.834000       15.9994           0
     27800 TIP3     3521     TIP3     H1       HT       0.417000       1.00800           0
     27801 TIP3     3521     TIP3     H2       HT       0.417000       1.00800           0
     27802 TIP3     3522     TIP3     OH2      OT      -0.834000       15.9994           0
     27803 TIP3     3522     TIP3     H1       HT       0.417000       1.00800           0
     27804 TIP3     3522     TIP3     H2       HT       0.417000       1.00800           0
     27805 TIP3     3523     TIP3     OH2      OT      -0.834000       15.9994           0
     27806 TIP3     3523     TIP3     H1       HT       0.417000       1.00800           0
     27807 TIP3     3523     TIP3     H2       HT       0.417000       1.00800           0
     27808 TIP3     3524     TIP3     OH2      OT      -0.834000       15.9994           0
     27809 TIP3     3524     TIP3     H1       HT       0.417000       1.00800           0
     27810 TIP3     3524     TIP3     H2       HT       0.417000       1.00800           0
     27811 TIP3     3525     TIP3     OH2      OT      -0.834000       15.9994           0
     27812 TIP3     3525     TIP3     H1       HT       0.417000       1.00800           0
     27813 TIP3     3525     TIP3     H2       HT       0.417000       1.00800           0
     27814 TIP3     3526     TIP3     OH2      OT      -0.834000       15.9994           0
     27815 TIP3     3526     TIP3     H1       HT       0.417000       1.00800           0
     27816 TIP3     3526     TIP3     H2       HT       0.417000       1.00800           0
     27817 TIP3     3527     TIP3     OH2      OT      -0.834000       15.9994           0
     27818 TIP3     3527     TIP3     H1       HT       0.417000       1.00800           0
     27819 TIP3     3527     TIP3     H2       HT       0.417000       1.00800           0
     27820 TIP3     3528     TIP3     OH2      OT      -0.834000       15.9994           0
     27821 TIP3     3528     TIP3     H1       HT       0.417000       1.00800           0
     27822 TIP3     3528     TIP3     H2       HT       0.417000       1.00800           0
     27823 TIP3     3529     TIP3     OH2      OT      -0.834000       15.9994           0
     27824 TIP3     3529     TIP3     H1       HT       0.417000       1.00800           0
     27825 TIP3     3529     TIP3     H2       HT       0.417000       1.00800           0
     27826 TIP3     3530     TIP3     OH2      OT      -0.834000       15.9994           0
     27827 TIP3     3530     TIP3     H1       HT       0.417000       1.00800           0
     27828 TIP3     3530     TIP3     H2       HT       0.417000       1.00800           0
     27829 TIP3     3531     TIP3     OH2      OT      -0.834000       15.9994           0
     27830 TIP3     3531     TIP3     H1       HT       0.417000       1.00800           0
     27831 TIP3     3531     TIP3     H2       HT       0.417000       1.00800           0
     27832 TIP3     3532     TIP3     OH2      OT      -0.834000       15.9994           0
     27833 TIP3     3532     TIP3     H1       HT       0.417000       1.00800           0
     27834 TIP3     3532     TIP3     H2       HT       0.417000       1.00800           0
     27835 TIP3     3533     TIP3     OH2      OT      -0.834000       15.9994           0
     27836 TIP3     3533     TIP3     H1       HT       0.417000       1.00800           0
     27837 TIP3     3533     TIP3     H2       HT       0.417000       1.00800           0
     27838 TIP3     3534     TIP3     OH2      OT      -0.834000       15.9994           0
     27839 TIP3     3534     TIP3     H1       HT       0.417000       1.00800           0
     27840 TIP3     3534     TIP3     H2       HT       0.417000       1.00800           0
     27841 TIP3     3535     TIP3     OH2      OT      -0.834000       15.9994           0
     27842 TIP3     3535     TIP3     H1       HT       0.417000       1.00800           0
     27843 TIP3     3535     TIP3     H2       HT       0.417000       1.00800           0
     27844 TIP3     3536     TIP3     OH2      OT      -0.834000       15.9994           0
     27845 TIP3     3536     TIP3     H1       HT       0.417000       1.00800           0
     27846 TIP3     3536     TIP3     H2       HT       0.417000       1.00800           0
     27847 TIP3     3537     TIP3     OH2      OT      -0.834000       15.9994           0
     27848 TIP3     3537     TIP3     H1       HT       0.417000       1.00800           0
     27849 TIP3     3537     TIP3     H2       HT       0.417000       1.00800           0
     27850 TIP3     3538     TIP3     OH2      OT      -0.834000       15.9994           0
     27851 TIP3     3538     TIP3     H1       HT       0.417000       1.00800           0
     27852 TIP3     3538     TIP3     H2       HT       0.417000       1.00800           0
     27853 TIP3     3539     TIP3     OH2      OT      -0.834000       15.9994           0
     27854 TIP3     3539     TIP3     H1       HT       0.417000       1.00800           0
     27855 TIP3     3539     TIP3     H2       HT       0.417000       1.00800           0
     27856 TIP3     3540     TIP3     OH2      OT      -0.834000       15.9994           0
     27857 TIP3     3540     TIP3     H1       HT       0.417000       1.00800           0
     27858 TIP3     3540     TIP3     H2       HT       0.417000       1.00800           0
     27859 TIP3     3541     TIP3     OH2      OT      -0.834000       15.9994           0
     27860 TIP3     3541     TIP3     H1       HT       0.417000       1.00800           0
     27861 TIP3     3541     TIP3     H2       HT       0.417000       1.00800           0
     27862 TIP3     3542     TIP3     OH2      OT      -0.834000       15.9994           0
     27863 TIP3     3542     TIP3     H1       HT       0.417000       1.00800           0
     27864 TIP3     3542     TIP3     H2       HT       0.417000       1.00800           0
     27865 TIP3     3543     TIP3     OH2      OT      -0.834000       15.9994           0
     27866 TIP3     3543     TIP3     H1       HT       0.417000       1.00800           0
     27867 TIP3     3543     TIP3     H2       HT       0.417000       1.00800           0
     27868 TIP3     3544     TIP3     OH2      OT      -0.834000       15.9994           0
     27869 TIP3     3544     TIP3     H1       HT       0.417000       1.00800           0
     27870 TIP3     3544     TIP3     H2       HT       0.417000       1.00800           0
     27871 TIP3     3545     TIP3     OH2      OT      -0.834000       15.9994           0
     27872 TIP3     3545     TIP3     H1       HT       0.417000       1.00800           0
     27873 TIP3     3545     TIP3     H2       HT       0.417000       1.00800           0
     27874 TIP3     3546     TIP3     OH2      OT      -0.834000       15.9994           0
     27875 TIP3     3546     TIP3     H1       HT       0.417000       1.00800           0
     27876 TIP3     3546     TIP3     H2       HT       0.417000       1.00800           0
     27877 TIP3     3547     TIP3     OH2      OT      -0.834000       15.9994           0
     27878 TIP3     3547     TIP3     H1       HT       0.417000       1.00800           0
     27879 TIP3     3547     TIP3     H2       HT       0.417000       1.00800           0
     27880 TIP3     3548     TIP3     OH2      OT      -0.834000       15.9994           0
     27881 TIP3     3548     TIP3     H1       HT       0.417000       1.00800           0
     27882 TIP3     3548     TIP3     H2       HT       0.417000       1.00800           0
     27883 TIP3     3549     TIP3     OH2      OT      -0.834000       15.9994           0
     27884 TIP3     3549     TIP3     H1       HT       0.417000       1.00800           0
     27885 TIP3     3549     TIP3     H2       HT       0.417000       1.00800           0
     27886 TIP3     3550     TIP3     OH2      OT      -0.834000       15.9994           0
     27887 TIP3     3550     TIP3     H1       HT       0.417000       1.00800           0
     27888 TIP3     3550     TIP3     H2       HT       0.417000       1.00800           0
     27889 TIP3     3551     TIP3     OH2      OT      -0.834000       15.9994           0
     27890 TIP3     3551     TIP3     H1       HT       0.417000       1.00800           0
     27891 TIP3     3551     TIP3     H2       HT       0.417000       1.00800           0
     27892 TIP3     3552     TIP3     OH2      OT      -0.834000       15.9994           0
     27893 TIP3     3552     TIP3     H1       HT       0.417000       1.00800           0
     27894 TIP3     3552     TIP3     H2       HT       0.417000       1.00800           0
     27895 TIP3     3553     TIP3     OH2      OT      -0.834000       15.9994           0
     27896 TIP3     3553     TIP3     H1       HT       0.417000       1.00800           0
     27897 TIP3     3553     TIP3     H2       HT       0.417000       1.00800           0
     27898 TIP3     3554     TIP3     OH2      OT      -0.834000       15.9994           0
     27899 TIP3     3554     TIP3     H1       HT       0.417000       1.00800           0
     27900 TIP3     3554     TIP3     H2       HT       0.417000       1.00800           0
     27901 TIP3     3555     TIP3     OH2      OT      -0.834000       15.9994           0
     27902 TIP3     3555     TIP3     H1       HT       0.417000       1.00800           0
     27903 TIP3     3555     TIP3     H2       HT       0.417000       1.00800           0
     27904 TIP3     3556     TIP3     OH2      OT      -0.834000       15.9994           0
     27905 TIP3     3556     TIP3     H1       HT       0.417000       1.00800           0
     27906 TIP3     3556     TIP3     H2       HT       0.417000       1.00800           0
     27907 TIP3     3557     TIP3     OH2      OT      -0.834000       15.9994           0
     27908 TIP3     3557     TIP3     H1       HT       0.417000       1.00800           0
     27909 TIP3     3557     TIP3     H2       HT       0.417000       1.00800           0
     27910 TIP3     3558     TIP3     OH2      OT      -0.834000       15.9994           0
     27911 TIP3     3558     TIP3     H1       HT       0.417000       1.00800           0
     27912 TIP3     3558     TIP3     H2       HT       0.417000       1.00800           0
     27913 TIP3     3559     TIP3     OH2      OT      -0.834000       15.9994           0
     27914 TIP3     3559     TIP3     H1       HT       0.417000       1.00800           0
     27915 TIP3     3559     TIP3     H2       HT       0.417000       1.00800           0
     27916 TIP3     3560     TIP3     OH2      OT      -0.834000       15.9994           0
     27917 TIP3     3560     TIP3     H1       HT       0.417000       1.00800           0
     27918 TIP3     3560     TIP3     H2       HT       0.417000       1.00800           0
     27919 TIP3     3561     TIP3     OH2      OT      -0.834000       15.9994           0
     27920 TIP3     3561     TIP3     H1       HT       0.417000       1.00800           0
     27921 TIP3     3561     TIP3     H2       HT       0.417000       1.00800           0
     27922 TIP3     3562     TIP3     OH2      OT      -0.834000       15.9994           0
     27923 TIP3     3562     TIP3     H1       HT       0.417000       1.00800           0
     27924 TIP3     3562     TIP3     H2       HT       0.417000       1.00800           0
     27925 TIP3     3563     TIP3     OH2      OT      -0.834000       15.9994           0
     27926 TIP3     3563     TIP3     H1       HT       0.417000       1.00800           0
     27927 TIP3     3563     TIP3     H2       HT       0.417000       1.00800           0
     27928 TIP3     3564     TIP3     OH2      OT      -0.834000       15.9994           0
     27929 TIP3     3564     TIP3     H1       HT       0.417000       1.00800           0
     27930 TIP3     3564     TIP3     H2       HT       0.417000       1.00800           0
     27931 TIP3     3565     TIP3     OH2      OT      -0.834000       15.9994           0
     27932 TIP3     3565     TIP3     H1       HT       0.417000       1.00800           0
     27933 TIP3     3565     TIP3     H2       HT       0.417000       1.00800           0
     27934 TIP3     3566     TIP3     OH2      OT      -0.834000       15.9994           0
     27935 TIP3     3566     TIP3     H1       HT       0.417000       1.00800           0
     27936 TIP3     3566     TIP3     H2       HT       0.417000       1.00800           0
     27937 TIP3     3567     TIP3     OH2      OT      -0.834000       15.9994           0
     27938 TIP3     3567     TIP3     H1       HT       0.417000       1.00800           0
     27939 TIP3     3567     TIP3     H2       HT       0.417000       1.00800           0
     27940 TIP3     3568     TIP3     OH2      OT      -0.834000       15.9994           0
     27941 TIP3     3568     TIP3     H1       HT       0.417000       1.00800           0
     27942 TIP3     3568     TIP3     H2       HT       0.417000       1.00800           0
     27943 TIP3     3569     TIP3     OH2      OT      -0.834000       15.9994           0
     27944 TIP3     3569     TIP3     H1       HT       0.417000       1.00800           0
     27945 TIP3     3569     TIP3     H2       HT       0.417000       1.00800           0
     27946 TIP3     3570     TIP3     OH2      OT      -0.834000       15.9994           0
     27947 TIP3     3570     TIP3     H1       HT       0.417000       1.00800           0
     27948 TIP3     3570     TIP3     H2       HT       0.417000       1.00800           0
     27949 TIP3     3571     TIP3     OH2      OT      -0.834000       15.9994           0
     27950 TIP3     3571     TIP3     H1       HT       0.417000       1.00800           0
     27951 TIP3     3571     TIP3     H2       HT       0.417000       1.00800           0
     27952 TIP3     3572     TIP3     OH2      OT      -0.834000       15.9994           0
     27953 TIP3     3572     TIP3     H1       HT       0.417000       1.00800           0
     27954 TIP3     3572     TIP3     H2       HT       0.417000       1.00800           0
     27955 TIP3     3573     TIP3     OH2      OT      -0.834000       15.9994           0
     27956 TIP3     3573     TIP3     H1       HT       0.417000       1.00800           0
     27957 TIP3     3573     TIP3     H2       HT       0.417000       1.00800           0
     27958 TIP3     3574     TIP3     OH2      OT      -0.834000       15.9994           0
     27959 TIP3     3574     TIP3     H1       HT       0.417000       1.00800           0
     27960 TIP3     3574     TIP3     H2       HT       0.417000       1.00800           0
     27961 TIP3     3575     TIP3     OH2      OT      -0.834000       15.9994           0
     27962 TIP3     3575     TIP3     H1       HT       0.417000       1.00800           0
     27963 TIP3     3575     TIP3     H2       HT       0.417000       1.00800           0
     27964 TIP3     3576     TIP3     OH2      OT      -0.834000       15.9994           0
     27965 TIP3     3576     TIP3     H1       HT       0.417000       1.00800           0
     27966 TIP3     3576     TIP3     H2       HT       0.417000       1.00800           0
     27967 TIP3     3577     TIP3     OH2      OT      -0.834000       15.9994           0
     27968 TIP3     3577     TIP3     H1       HT       0.417000       1.00800           0
     27969 TIP3     3577     TIP3     H2       HT       0.417000       1.00800           0
     27970 TIP3     3578     TIP3     OH2      OT      -0.834000       15.9994           0
     27971 TIP3     3578     TIP3     H1       HT       0.417000       1.00800           0
     27972 TIP3     3578     TIP3     H2       HT       0.417000       1.00800           0
     27973 TIP3     3579     TIP3     OH2      OT      -0.834000       15.9994           0
     27974 TIP3     3579     TIP3     H1       HT       0.417000       1.00800           0
     27975 TIP3     3579     TIP3     H2       HT       0.417000       1.00800           0
     27976 TIP3     3580     TIP3     OH2      OT      -0.834000       15.9994           0
     27977 TIP3     3580     TIP3     H1       HT       0.417000       1.00800           0
     27978 TIP3     3580     TIP3     H2       HT       0.417000       1.00800           0
     27979 TIP3     3581     TIP3     OH2      OT      -0.834000       15.9994           0
     27980 TIP3     3581     TIP3     H1       HT       0.417000       1.00800           0
     27981 TIP3     3581     TIP3     H2       HT       0.417000       1.00800           0
     27982 TIP3     3582     TIP3     OH2      OT      -0.834000       15.9994           0
     27983 TIP3     3582     TIP3     H1       HT       0.417000       1.00800           0
     27984 TIP3     3582     TIP3     H2       HT       0.417000       1.00800           0
     27985 TIP3     3583     TIP3     OH2      OT      -0.834000       15.9994           0
     27986 TIP3     3583     TIP3     H1       HT       0.417000       1.00800           0
     27987 TIP3     3583     TIP3     H2       HT       0.417000       1.00800           0
     27988 TIP3     3584     TIP3     OH2      OT      -0.834000       15.9994           0
     27989 TIP3     3584     TIP3     H1       HT       0.417000       1.00800           0
     27990 TIP3     3584     TIP3     H2       HT       0.417000       1.00800           0
     27991 TIP3     3585     TIP3     OH2      OT      -0.834000       15.9994           0
     27992 TIP3     3585     TIP3     H1       HT       0.417000       1.00800           0
     27993 TIP3     3585     TIP3     H2       HT       0.417000       1.00800           0
     27994 TIP3     3586     TIP3     OH2      OT      -0.834000       15.9994           0
     27995 TIP3     3586     TIP3     H1       HT       0.417000       1.00800           0
     27996 TIP3     3586     TIP3     H2       HT       0.417000       1.00800           0
     27997 TIP3     3587     TIP3     OH2      OT      -0.834000       15.9994           0
     27998 TIP3     3587     TIP3     H1       HT       0.417000       1.00800           0
     27999 TIP3     3587     TIP3     H2       HT       0.417000       1.00800           0
     28000 TIP3     3588     TIP3     OH2      OT      -0.834000       15.9994           0
     28001 TIP3     3588     TIP3     H1       HT       0.417000       1.00800           0
     28002 TIP3     3588     TIP3     H2       HT       0.417000       1.00800           0
     28003 TIP3     3589     TIP3     OH2      OT      -0.834000       15.9994           0
     28004 TIP3     3589     TIP3     H1       HT       0.417000       1.00800           0
     28005 TIP3     3589     TIP3     H2       HT       0.417000       1.00800           0
     28006 TIP3     3590     TIP3     OH2      OT      -0.834000       15.9994           0
     28007 TIP3     3590     TIP3     H1       HT       0.417000       1.00800           0
     28008 TIP3     3590     TIP3     H2       HT       0.417000       1.00800           0
     28009 TIP3     3591     TIP3     OH2      OT      -0.834000       15.9994           0
     28010 TIP3     3591     TIP3     H1       HT       0.417000       1.00800           0
     28011 TIP3     3591     TIP3     H2       HT       0.417000       1.00800           0
     28012 TIP3     3592     TIP3     OH2      OT      -0.834000       15.9994           0
     28013 TIP3     3592     TIP3     H1       HT       0.417000       1.00800           0
     28014 TIP3     3592     TIP3     H2       HT       0.417000       1.00800           0
     28015 TIP3     3593     TIP3     OH2      OT      -0.834000       15.9994           0
     28016 TIP3     3593     TIP3     H1       HT       0.417000       1.00800           0
     28017 TIP3     3593     TIP3     H2       HT       0.417000       1.00800           0
     28018 TIP3     3594     TIP3     OH2      OT      -0.834000       15.9994           0
     28019 TIP3     3594     TIP3     H1       HT       0.417000       1.00800           0
     28020 TIP3     3594     TIP3     H2       HT       0.417000       1.00800           0
     28021 TIP3     3595     TIP3     OH2      OT      -0.834000       15.9994           0
     28022 TIP3     3595     TIP3     H1       HT       0.417000       1.00800           0
     28023 TIP3     3595     TIP3     H2       HT       0.417000       1.00800           0
     28024 TIP3     3596     TIP3     OH2      OT      -0.834000       15.9994           0
     28025 TIP3     3596     TIP3     H1       HT       0.417000       1.00800           0
     28026 TIP3     3596     TIP3     H2       HT       0.417000       1.00800           0
     28027 TIP3     3597     TIP3     OH2      OT      -0.834000       15.9994           0
     28028 TIP3     3597     TIP3     H1       HT       0.417000       1.00800           0
     28029 TIP3     3597     TIP3     H2       HT       0.417000       1.00800           0
     28030 TIP3     3598     TIP3     OH2      OT      -0.834000       15.9994           0
     28031 TIP3     3598     TIP3     H1       HT       0.417000       1.00800           0
     28032 TIP3     3598     TIP3     H2       HT       0.417000       1.00800           0
     28033 TIP3     3599     TIP3     OH2      OT      -0.834000       15.9994           0
     28034 TIP3     3599     TIP3     H1       HT       0.417000       1.00800           0
     28035 TIP3     3599     TIP3     H2       HT       0.417000       1.00800           0
     28036 TIP3     3600     TIP3     OH2      OT      -0.834000       15.9994           0
     28037 TIP3     3600     TIP3     H1       HT       0.417000       1.00800           0
     28038 TIP3     3600     TIP3     H2       HT       0.417000       1.00800           0
     28039 TIP3     3601     TIP3     OH2      OT      -0.834000       15.9994           0
     28040 TIP3     3601     TIP3     H1       HT       0.417000       1.00800           0
     28041 TIP3     3601     TIP3     H2       HT       0.417000       1.00800           0
     28042 TIP3     3602     TIP3     OH2      OT      -0.834000       15.9994           0
     28043 TIP3     3602     TIP3     H1       HT       0.417000       1.00800           0
     28044 TIP3     3602     TIP3     H2       HT       0.417000       1.00800           0
     28045 TIP3     3603     TIP3     OH2      OT      -0.834000       15.9994           0
     28046 TIP3     3603     TIP3     H1       HT       0.417000       1.00800           0
     28047 TIP3     3603     TIP3     H2       HT       0.417000       1.00800           0
     28048 TIP3     3604     TIP3     OH2      OT      -0.834000       15.9994           0
     28049 TIP3     3604     TIP3     H1       HT       0.417000       1.00800           0
     28050 TIP3     3604     TIP3     H2       HT       0.417000       1.00800           0
     28051 TIP3     3605     TIP3     OH2      OT      -0.834000       15.9994           0
     28052 TIP3     3605     TIP3     H1       HT       0.417000       1.00800           0
     28053 TIP3     3605     TIP3     H2       HT       0.417000       1.00800           0
     28054 TIP3     3606     TIP3     OH2      OT      -0.834000       15.9994           0
     28055 TIP3     3606     TIP3     H1       HT       0.417000       1.00800           0
     28056 TIP3     3606     TIP3     H2       HT       0.417000       1.00800           0
     28057 TIP3     3607     TIP3     OH2      OT      -0.834000       15.9994           0
     28058 TIP3     3607     TIP3     H1       HT       0.417000       1.00800           0
     28059 TIP3     3607     TIP3     H2       HT       0.417000       1.00800           0
     28060 TIP3     3608     TIP3     OH2      OT      -0.834000       15.9994           0
     28061 TIP3     3608     TIP3     H1       HT       0.417000       1.00800           0
     28062 TIP3     3608     TIP3     H2       HT       0.417000       1.00800           0
     28063 TIP3     3609     TIP3     OH2      OT      -0.834000       15.9994           0
     28064 TIP3     3609     TIP3     H1       HT       0.417000       1.00800           0
     28065 TIP3     3609     TIP3     H2       HT       0.417000       1.00800           0
     28066 TIP3     3610     TIP3     OH2      OT      -0.834000       15.9994           0
     28067 TIP3     3610     TIP3     H1       HT       0.417000       1.00800           0
     28068 TIP3     3610     TIP3     H2       HT       0.417000       1.00800           0
     28069 TIP3     3611     TIP3     OH2      OT      -0.834000       15.9994           0
     28070 TIP3     3611     TIP3     H1       HT       0.417000       1.00800           0
     28071 TIP3     3611     TIP3     H2       HT       0.417000       1.00800           0
     28072 TIP3     3612     TIP3     OH2      OT      -0.834000       15.9994           0
     28073 TIP3     3612     TIP3     H1       HT       0.417000       1.00800           0
     28074 TIP3     3612     TIP3     H2       HT       0.417000       1.00800           0
     28075 IONS     1        POT      POT      POT       1.00000       39.0983           0
     28076 IONS     2        POT      POT      POT       1.00000       39.0983           0
     28077 IONS     3        POT      POT      POT       1.00000       39.0983           0
     28078 IONS     4        POT      POT      POT       1.00000       39.0983           0
     28079 IONS     5        POT      POT      POT       1.00000       39.0983           0
     28080 IONS     6        POT      POT      POT       1.00000       39.0983           0
     28081 IONS     7        POT      POT      POT       1.00000       39.0983           0
     28082 IONS     8        POT      POT      POT       1.00000       39.0983           0
     28083 IONS     9        POT      POT      POT       1.00000       39.0983           0
     28084 IONS     10       POT      POT      POT       1.00000       39.0983           0
     28085 IONS     11       POT      POT      POT       1.00000       39.0983           0
     28086 IONS     12       POT      POT      POT       1.00000       39.0983           0
     28087 IONS     13       POT      POT      POT       1.00000       39.0983           0
     28088 IONS     14       POT      POT      POT       1.00000       39.0983           0
     28089 IONS     15       POT      POT      POT       1.00000       39.0983           0
     28090 IONS     16       POT      POT      POT       1.00000       39.0983           0
     28091 IONS     17       POT      POT      POT       1.00000       39.0983           0
     28092 IONS     18       POT      POT      POT       1.00000       39.0983           0
     28093 IONS     19       POT      POT      POT       1.00000       39.0983           0
     28094 IONS     20       POT      POT      POT       1.00000       39.0983           0
     28095 IONS     21       POT      POT      POT       1.00000       39.0983           0
     28096 IONS     22       POT      POT      POT       1.00000       39.0983           0
     28097 IONS     23       POT      POT      POT       1.00000       39.0983           0
     28098 IONS     24       POT      POT      POT       1.00000       39.0983           0
     28099 IONS     25       POT      POT      POT       1.00000       39.0983           0
     28100 IONS     26       POT      POT      POT       1.00000       39.0983           0
     28101 IONS     27       POT      POT      POT       1.00000       39.0983           0
     28102 IONS     28       POT      POT      POT       1.00000       39.0983           0
     28103 IONS     29       POT      POT      POT       1.00000       39.0983           0
     28104 IONS     30       POT      POT      POT       1.00000       39.0983           0
     28105 IONS     31       POT      POT      POT       1.00000       39.0983           0
     28106 IONS     32       POT      POT      POT       1.00000       39.0983           0
     28107 IONS     33       POT      POT      POT       1.00000       39.0983           0
     28108 IONS     34       POT      POT      POT       1.00000       39.0983           0
     28109 IONS     35       CLA      CLA      CLA      -1.00000       35.4500           0
     28110 IONS     36       CLA      CLA      CLA      -1.00000       35.4500           0
     28111 IONS     37       CLA      CLA      CLA      -1.00000       35.4500           0
     28112 IONS     38       CLA      CLA      CLA      -1.00000       35.4500           0
     28113 IONS     39       CLA      CLA      CLA      -1.00000       35.4500           0
     28114 IONS     40       CLA      CLA      CLA      -1.00000       35.4500           0
     28115 IONS     41       CLA      CLA      CLA      -1.00000       35.4500           0
     28116 IONS     42       CLA      CLA      CLA      -1.00000       35.4500           0

     27944 !NBOND: bonds
         1         5         1         9         1        13         5         6
         5         7         5         8         9        10         9        11
         9        12        13        14        13        15        13        16
         1         2         2         3         2         4         2        17
        17        18        17        19        17        23        24        25
        23        20        20        24        20        21        20        22
        25        26        25        27        25        28        28        29
        28        36        28        30        36        37        36        38
        36        39        30        31        31        33        31        32
        33        34        33        35        33        45        45        46
        45        47        45        48        48        49        48        50
        48        51        51        52        51        53        51        54
        54        55        54        56        54        57        57        58
        57        59        57        60        60        61        60        62
        60        63        63        64        63        65        65        66
        65        67        67        68        67        69        67        70
        70        71        70        72        70        73        73        74
        73        75        73        76        76        77        76        78
        76        79        79        80        79        81        79        82
        82        83        82        84        82        85        85        86
        85        87        85        88        88        89        88        90
        88        91        39        40        40        42        40        41
        42        43        42        44        42        92        92        93
        92        94        92        95        95        96        95        97
        95        98        98        99        98       100        98       101
       101       102       101       103       101       104       104       105
       104       106       104       107       107       108       107       109
       107       110       110       111       110       112       110       113
       113       114       113       115       113       116       116       117
       116       118       116       119       119       120       119       121
       119       122       122       123       122       124       122       125
       125       126       125       127       125       128       128       129
       128       130       128       131       131       132       131       133
       131       134       135       139       135       143       135       147
       139       140       139       141       139       142       143       144
       143       145       143       146       147       148       147       149
       147       150       135       136       136       137       136       138
       136       151       151       152       151       153       151       157
       158       159       157       154       154       158       154       155
       154       156       159       160       159       161       159       162
       162       163       162       170       162       164       170       171
       170       172       170       173       164       165       165       167
       165       166       167       168       167       169       167       179
       179       180       179       181       179       182       182       183
       182       184       182       185       185       186       185       187
       185       188       188       189       188       190       188       191
       191       192       191       193       191       194       194       195
       194       196       194       197       197       198       197       199
       199       200       199       201       201       202       201       203
       201       204       204       205       204       206       204       207
       207       208       207       209       207       210       210       211
       210       212       210       213       213       214       213       215
       213       216       216       217       216       218       216       219
       219       220       219       221       219       222       222       223
       222       224       222       225       173       174       174       176
       174       175       176       177       176       178       176       226
       226       227       226       228       226       229       229       230
       229       231       229       232       232       233       232       234
       232       235       235       236       235       237       235       238
       238       239       238       240       238       241       241       242
       241       243       241       244       244       245       244       246
       244       247       247       248       247       249       247       250
       250       251       250       252       250       253       253       254
       253       255       253       256       256       257       256       258
       256       259       259       260       259       261       259       262
       262       263       262       264       262       265       265       266
       265       267       265       268       269       273       269       277
       269       281       273       274       273       275       273       276
       277       278       277       279       277       280       281       282
       281       283       281       284       269       270       270       271
       270       272       270       285       285       286       285       287
       285       291       292       293       291       288       288       292
       288       289       288       290       293       294       293       295
       293       296       296       297       296       304       296       298
       304       305       304       306       304       307       298       299
       299       301       299       300       301       302       301       303
       301       313       313       314       313       315       313       316
       316       317       316       318       316       319       319       320
       319       321       319       322       322       323       322       324
       322       325       325       326       325       327       325       328
       328       329       328       330       328       331       331       332
       331       333       333       334       333       335       335       336
       335       337       335       338       338       339       338       340
       338       341       341       342       341       343       341       344
       344       345       344       346       344       347       347       348
       347       349       347       350       350       351       350       352
       350       353       353       354       353       355       353       356
       356       357       356       358       356       359       307       308
       308       310       308       309       310       311       310       312
       310       360       360       361       360       362       360       363
       363       364       363       365       363       366       366       367
       366       368       366       369       369       370       369       371
       369       372       372       373       372       374       372       375
       375       376       375       377       375       378       378       379
       378       380       378       381       381       382       381       383
       381       384       384       385       384       386       384       387
       387       388       387       389       387       390       390       391
       390       392       390       393       393       394       393       395
       393       396       396       397       396       398       396       399
       399       400       399       401       399       402       403       407
       403       411       403       415       407       408       407       409
       407       410       411       412       411       413       411       414
       415       416       415       417       415       418       403       404
       404       405       404       406       404       419       419       420
       419       421       419       425       426       427       425       422
       422       426       422       423       422       424       427       428
       427       429       427       430       430       431       430       438
       430       432       438       439       438       440       438       441
       432       433       433       435       433       434       435       436
       435       437       435       447       447       448       447       449
       447       450       450       451       450       452       450       453
       453       454       453       455       453       456       456       457
       456       458       456       459       459       460       459       461
       459       462       462       463       462       464       462       465
       465       466       465       467       467       468       467       469
       469       470       469       471       469       472       472       473
       472       474       472       475       475       476       475       477
       475       478       478       479       478       480       478       481
       481       482       481       483       481       484       484       485
       484       486       484       487       487       488       487       489
       487       490       490       491       490       492       490       493
       441       442       442       444       442       443       444       445
       444       446       444       494       494       495       494       496
       494       497       497       498       497       499       497       500
       500       501       500       502       500       503       503       504
       503       505       503       506       506       507       506       508
       506       509       509       510       509       511       509       512
       512       513       512       514       512       515       515       516
       515       517       515       518       518       519       518       520
       518       521       521       522       521       523       521       524
       524       525       524       526       524       527       527       528
       527       529       527       530       530       531       530       532
       530       533       533       534       533       535       533       536
       537       541       537       545       537       549       541       542
       541       543       541       544       545       546       545       547
       545       548       549       550       549       551       549       552
       537       538       538       539       538       540       538       553
       553       554       553       555       553       559       560       561
       559       556       556       560       556       557       556       558
       561       562       561       563       561       564       564       565
       564       572       564       566       572       573       572       574
       572       575       566       567       567       569       567       568
       569       570       569       571       569       581       581       582
       581       583       581       584       584       585       584       586
       584       587       587       588       587       589       587       590
       590       591       590       592       590       593       593       594
       593       595       593       596       596       597       596       598
       596       599       599       600       599       601       601       602
       601       603       603       604       603       605       603       606
       606       607       606       608       606       609       609       610
       609       611       609       612       612       613       612       614
       612       615       615       616       615       617       615       618
       618       619       618       620       618       621       621       622
       621       623       621       624       624       625       624       626
       624       627       575       576       576       578       576       577
       578       579       578       580       578       628       628       629
       628       630       628       631       631       632       631       633
       631       634       634       635       634       636       634       637
       637       638       637       639       637       640       640       641
       640       642       640       643       643       644       643       645
       643       646       646       647       646       648       646       649
       649       650       649       651       649       652       652       653
       652       654       652       655       655       656       655       657
       655       658       658       659       658       660       658       661
       661       662       661       663       661       664       664       665
       664       666       664       667       667       668       667       669
       667       670       671       672       671       673       671       674
       671       675       679       677       677       675       677       678
       675       676       675       680       688       687       680       681
       680       682       680       686       686       683       683       687
       683       684       683       685       688       689       688       690
       688       691       691       692       691       699       691       693
       699       700       699       701       699       702       693       694
       694       696       694       695       696       697       696       698
       696       708       708       709       708       710       708       711
       711       712       711       713       711       714       714       715
       714       716       714       717       717       718       717       719
       717       720       720       721       720       722       720       723
       723       724       723       725       723       726       726       727
       726       728       728       729       728       730       730       731
       730       732       730       733       733       734       733       735
       733       736       736       737       736       738       736       739
       739       740       739       741       739       742       742       743
       742       744       742       745       745       746       745       747
       745       748       748       749       748       750       748       751
       751       752       751       753       751       754       702       703
       703       705       703       704       705       706       705       707
       705       755       755       756       755       757       755       758
       758       759       758       760       758       761       761       762
       761       763       761       764       764       765       764       766
       764       767       767       768       767       769       767       770
       770       771       770       772       770       773       773       774
       773       775       773       776       776       777       776       778
       776       779       779       780       779       781       779       782
       782       783       782       784       782       785       785       786
       785       787       785       788       788       789       788       790
       788       791       791       792       791       793       791       794
       794       795       794       796       794       797       798       802
       798       806       798       810       802       803       802       804
       802       805       806       807       806       808       806       809
       810       811       810       812       810       813       798       799
       799       800       799       801       799       814       814       815
       814       816       814       820       821       822       820       817
       817       821       817       818       817       819       822       823
       822       824       822       825       825       826       825       833
       825       827       833       834       833       835       833       836
       827       828       828       830       828       829       830       831
       830       832       830       842       842       843       842       844
       842       845       845       846       845       847       845       848
       848       849       848       850       848       851       851       852
       851       853       851       854       854       855       854       856
       854       857       857       858       857       859       857       860
       860       861       860       862       862       863       862       864
       864       865       864       866       864       867       867       868
       867       869       867       870       870       871       870       872
       870       873       873       874       873       875       873       876
       876       877       876       878       876       879       879       880
       879       881       879       882       882       883       882       884
       882       885       885       886       885       887       885       888
       836       837       837       839       837       838       839       840
       839       841       839       889       889       890       889       891
       889       892       892       893       892       894       892       895
       895       896       895       897       895       898       898       899
       898       900       898       901       901       902       901       903
       901       904       904       905       904       906       904       907
       907       908       907       909       907       910       910       911
       910       912       910       913       913       914       913       915
       913       916       916       917       916       918       916       919
       919       920       919       921       919       922       922       923
       922       924       922       925       925       926       925       927
       925       928       928       929       928       930       928       931
       932       936       932       940       932       944       936       937
       936       938       936       939       940       941       940       942
       940       943       944       945       944       946       944       947
       932       933       933       934       933       935       933       948
       948       949       948       950       948       954       955       956
       954       951       951       955       951       952       951       953
       956       957       956       958       956       959       959       960
       959       967       959       961       967       968       967       969
       967       970       961       962       962       964       962       963
       964       965       964       966       964       976       976       977
       976       978       976       979       979       980       979       981
       979       982       982       983       982       984       982       985
       985       986       985       987       985       988       988       989
       988       990       988       991       991       992       991       993
       991       994       994       995       994       996       996       997
       996       998       998       999       998      1000       998      1001
      1001      1002      1001      1003      1001      1004      1004      1005
      1004      1006      1004      1007      1007      1008      1007      1009
      1007      1010      1010      1011      1010      1012      1010      1013
      1013      1014      1013      1015      1013      1016      1016      1017
      1016      1018      1016      1019      1019      1020      1019      1021
      1019      1022       970       971       971       973       971       972
       973       974       973       975       973      1023      1023      1024
      1023      1025      1023      1026      1026      1027      1026      1028
      1026      1029      1029      1030      1029      1031      1029      1032
      1032      1033      1032      1034      1032      1035      1035      1036
      1035      1037      1035      1038      1038      1039      1038      1040
      1038      1041      1041      1042      1041      1043      1041      1044
      1044      1045      1044      1046      1044      1047      1047      1048
      1047      1049      1047      1050      1050      1051      1050      1052
      1050      1053      1053      1054      1053      1055      1053      1056
      1056      1057      1056      1058      1056      1059      1059      1060
      1059      1061      1059      1062      1062      1063      1062      1064
      1062      1065      1066      1067      1066      1068      1066      1069
      1066      1070      1074      1072      1072      1070      1072      1073
      1070      1071      1070      1075      1083      1082      1075      1076
      1075      1077      1075      1081      1081      1078      1078      1082
      1078      1079      1078      1080      1083      1084      1083      1085
      1083      1086      1086      1087      1086      1094      1086      1088
      1094      1095      1094      1096      1094      1097      1088      1089
      1089      1091      1089      1090      1091      1092      1091      1093
      1091      1103      1103      1104      1103      1105      1103      1106
      1106      1107      1106      1108      1106      1109      1109      1110
      1109      1111      1109      1112      1112      1113      1112      1114
      1112      1115      1115      1116      1115      1117      1115      1118
      1118      1119      1118      1120      1118      1121      1121      1122
      1121      1123      1123      1124      1123      1125      1125      1126
      1125      1127      1125      1128      1128      1129      1128      1130
      1128      1131      1131      1132      1131      1133      1131      1134
      1134      1135      1134      1136      1134      1137      1137      1138
      1137      1139      1137      1140      1140      1141      1140      1142
      1140      1143      1143      1144      1143      1145      1143      1146
      1146      1147      1146      1148      1146      1149      1097      1098
      1098      1100      1098      1099      1100      1101      1100      1102
      1100      1150      1150      1151      1150      1152      1150      1153
      1153      1154      1153      1155      1153      1156      1156      1157
      1156      1158      1156      1159      1159      1160      1159      1161
      1159      1162      1162      1163      1162      1164      1162      1165
      1165      1166      1165      1167      1165      1168      1168      1169
      1168      1170      1168      1171      1171      1172      1171      1173
      1171      1174      1174      1175      1174      1176      1174      1177
      1177      1178      1177      1179      1177      1180      1180      1181
      1180      1182      1180      1183      1183      1184      1183      1185
      1183      1186      1186      1187      1186      1188      1186      1189
      1189      1190      1189      1191      1189      1192      1193      1197
      1193      1201      1193      1205      1197      1198      1197      1199
      1197      1200      1201      1202      1201      1203      1201      1204
      1205      1206      1205      1207      1205      1208      1193      1194
      1194      1195      1194      1196      1194      1209      1209      1210
      1209      1211      1209      1215      1216      1217      1215      1212
      1212      1216      1212      1213      1212      1214      1217      1218
      1217      1219      1217      1220      1220      1221      1220      1228
      1220      1222      1228      1229      1228      1230      1228      1231
      1222      1223      1223      1225      1223      1224      1225      1226
      1225      1227      1225      1237      1237      1238      1237      1239
      1237      1240      1240      1241      1240      1242      1240      1243
      1243      1244      1243      1245      1243      1246      1246      1247
      1246      1248      1246      1249      1249      1250      1249      1251
      1249      1252      1252      1253      1252      1254      1252      1255
      1255      1256      1255      1257      1257      1258      1257      1259
      1259      1260      1259      1261      1259      1262      1262      1263
      1262      1264      1262      1265      1265      1266      1265      1267
      1265      1268      1268      1269      1268      1270      1268      1271
      1271      1272      1271      1273      1271      1274      1274      1275
      1274      1276      1274      1277      1277      1278      1277      1279
      1277      1280      1280      1281      1280      1282      1280      1283
      1231      1232      1232      1234      1232      1233      1234      1235
      1234      1236      1234      1284      1284      1285      1284      1286
      1284      1287      1287      1288      1287      1289      1287      1290
      1290      1291      1290      1292      1290      1293      1293      1294
      1293      1295      1293      1296      1296      1297      1296      1298
      1296      1299      1299      1300      1299      1301      1299      1302
      1302      1303      1302      1304      1302      1305      1305      1306
      1305      1307      1305      1308      1308      1309      1308      1310
      1308      1311      1311      1312      1311      1313      1311      1314
      1314      1315      1314      1316      1314      1317      1317      1318
      1317      1319      1317      1320      1320      1321      1320      1322
      1320      1323      1323      1324      1323      1325      1323      1326
      1327      1328      1327      1329      1327      1330      1327      1331
      1335      1333      1333      1331      1333      1334      1331      1332
      1331      1336      1344      1343      1336      1337      1336      1338
      1336      1342      1342      1339      1339      1343      1339      1340
      1339      1341      1344      1345      1344      1346      1344      1347
      1347      1348      1347      1355      1347      1349      1355      1356
      1355      1357      1355      1358      1349      1350      1350      1352
      1350      1351      1352      1353      1352      1354      1352      1364
      1364      1365      1364      1366      1364      1367      1367      1368
      1367      1369      1367      1370      1370      1371      1370      1372
      1370      1373      1373      1374      1373      1375      1373      1376
      1376      1377      1376      1378      1376      1379      1379      1380
      1379      1381      1379      1382      1382      1383      1382      1384
      1384      1385      1384      1386      1386      1387      1386      1388
      1386      1389      1389      1390      1389      1391      1389      1392
      1392      1393      1392      1394      1392      1395      1395      1396
      1395      1397      1395      1398      1398      1399      1398      1400
      1398      1401      1401      1402      1401      1403      1401      1404
      1404      1405      1404      1406      1404      1407      1407      1408
      1407      1409      1407      1410      1358      1359      1359      1361
      1359      1360      1361      1362      1361      1363      1361      1411
      1411      1412      1411      1413      1411      1414      1414      1415
      1414      1416      1414      1417      1417      1418      1417      1419
      1417      1420      1420      1421      1420      1422      1420      1423
      1423      1424      1423      1425      1423      1426      1426      1427
      1426      1428      1426      1429      1429      1430      1429      1431
      1429      1432      1432      1433      1432      1434      1432      1435
      1435      1436      1435      1437      1435      1438      1438      1439
      1438      1440      1438      1441      1441      1442      1441      1443
      1441      1444      1444      1445      1444      1446      1444      1447
      1447      1448      1447      1449      1447      1450      1450      1451
      1450      1452      1450      1453      1454      1455      1454      1456
      1454      1457      1454      1458      1462      1460      1460      1458
      1460      1461      1458      1459      1458      1463      1471      1470
      1463      1464      1463      1465      1463      1469      1469      1466
      1466      1470      1466      1467      1466      1468      1471      1472
      1471      1473      1471      1474      1474      1475      1474      1482
      1474      1476      1482      1483      1482      1484      1482      1485
      1476      1477      1477      1479      1477      1478      1479      1480
      1479      1481      1479      1491      1491      1492      1491      1493
      1491      1494      1494      1495      1494      1496      1494      1497
      1497      1498      1497      1499      1497      1500      1500      1501
      1500      1502      1500      1503      1503      1504      1503      1505
      1503      1506      1506      1507      1506      1508      1506      1509
      1509      1510      1509      1511      1511      1512      1511      1513
      1513      1514      1513      1515      1513      1516      1516      1517
      1516      1518      1516      1519      1519      1520      1519      1521
      1519      1522      1522      1523      1522      1524      1522      1525
      1525      1526      1525      1527      1525      1528      1528      1529
      1528      1530      1528      1531      1531      1532      1531      1533
      1531      1534      1534      1535      1534      1536      1534      1537
      1485      1486      1486      1488      1486      1487      1488      1489
      1488      1490      1488      1538      1538      1539      1538      1540
      1538      1541      1541      1542      1541      1543      1541      1544
      1544      1545      1544      1546      1544      1547      1547      1548
      1547      1549      1547      1550      1550      1551      1550      1552
      1550      1553      1553      1554      1553      1555      1553      1556
      1556      1557      1556      1558      1556      1559      1559      1560
      1559      1561      1559      1562      1562      1563      1562      1564
      1562      1565      1565      1566      1565      1567      1565      1568
      1568      1569      1568      1570      1568      1571      1571      1572
      1571      1573      1571      1574      1574      1575      1574      1576
      1574      1577      1577      1578      1577      1579      1577      1580
      1581      1585      1581      1589      1581      1593      1585      1586
      1585      1587      1585      1588      1589      1590      1589      1591
      1589      1592      1593      1594      1593      1595      1593      1596
      1581      1582      1582      1583      1582      1584      1582      1597
      1597      1598      1597      1599      1597      1603      1604      1605
      1603      1600      1600      1604      1600      1601      1600      1602
      1605      1606      1605      1607      1605      1608      1608      1609
      1608      1616      1608      1610      1616      1617      1616      1618
      1616      1619      1610      1611      1611      1613      1611      1612
      1613      1614      1613      1615      1613      1625      1625      1626
      1625      1627      1625      1628      1628      1629      1628      1630
      1628      1631      1631      1632      1631      1633      1631      1634
      1634      1635      1634      1636      1634      1637      1637      1638
      1637      1639      1637      1640      1640      1641      1640      1642
      1640      1643      1643      1644      1643      1645      1645      1646
      1645      1647      1647      1648      1647      1649      1647      1650
      1650      1651      1650      1652      1650      1653      1653      1654
      1653      1655      1653      1656      1656      1657      1656      1658
      1656      1659      1659      1660      1659      1661      1659      1662
      1662      1663      1662      1664      1662      1665      1665      1666
      1665      1667      1665      1668      1668      1669      1668      1670
      1668      1671      1619      1620      1620      1622      1620      1621
      1622      1623      1622      1624      1622      1672      1672      1673
      1672      1674      1672      1675      1675      1676      1675      1677
      1675      1678      1678      1679      1678      1680      1678      1681
      1681      1682      1681      1683      1681      1684      1684      1685
      1684      1686      1684      1687      1687      1688      1687      1689
      1687      1690      1690      1691      1690      1692      1690      1693
      1693      1694      1693      1695      1693      1696      1696      1697
      1696      1698      1696      1699      1699      1700      1699      1701
      1699      1702      1702      1703      1702      1704      1702      1705
      1705      1706      1705      1707      1705      1708      1708      1709
      1708      1710      1708      1711      1711      1712      1711      1713
      1711      1714      1715      1719      1715      1723      1715      1727
      1719      1720      1719      1721      1719      1722      1723      1724
      1723      1725      1723      1726      1727      1728      1727      1729
      1727      1730      1715      1716      1716      1717      1716      1718
      1716      1731      1731      1732      1731      1733      1731      1737
      1738      1739      1737      1734      1734      1738      1734      1735
      1734      1736      1739      1740      1739      1741      1739      1742
      1742      1743      1742      1750      1742      1744      1750      1751
      1750      1752      1750      1753      1744      1745      1745      1747
      1745      1746      1747      1748      1747      1749      1747      1759
      1759      1760      1759      1761      1759      1762      1762      1763
      1762      1764      1762      1765      1765      1766      1765      1767
      1765      1768      1768      1769      1768      1770      1768      1771
      1771      1772      1771      1773      1771      1774      1774      1775
      1774      1776      1774      1777      1777      1778      1777      1779
      1779      1780      1779      1781      1781      1782      1781      1783
      1781      1784      1784      1785      1784      1786      1784      1787
      1787      1788      1787      1789      1787      1790      1790      1791
      1790      1792      1790      1793      1793      1794      1793      1795
      1793      1796      1796      1797      1796      1798      1796      1799
      1799      1800      1799      1801      1799      1802      1802      1803
      1802      1804      1802      1805      1753      1754      1754      1756
      1754      1755      1756      1757      1756      1758      1756      1806
      1806      1807      1806      1808      1806      1809      1809      1810
      1809      1811      1809      1812      1812      1813      1812      1814
      1812      1815      1815      1816      1815      1817      1815      1818
      1818      1819      1818      1820      1818      1821      1821      1822
      1821      1823      1821      1824      1824      1825      1824      1826
      1824      1827      1827      1828      1827      1829      1827      1830
      1830      1831      1830      1832      1830      1833      1833      1834
      1833      1835      1833      1836      1836      1837      1836      1838
      1836      1839      1839      1840      1839      1841      1839      1842
      1842      1843      1842      1844      1842      1845      1845      1846
      1845      1847      1845      1848      1849      1853      1849      1857
      1849      1861      1853      1854      1853      1855      1853      1856
      1857      1858      1857      1859      1857      1860      1861      1862
      1861      1863      1861      1864      1849      1850      1850      1851
      1850      1852      1850      1865      1865      1866      1865      1867
      1865      1871      1872      1873      1871      1868      1868      1872
      1868      1869      1868      1870      1873      1874      1873      1875
      1873      1876      1876      1877      1876      1884      1876      1878
      1884      1885      1884      1886      1884      1887      1878      1879
      1879      1881      1879      1880      1881      1882      1881      1883
      1881      1893      1893      1894      1893      1895      1893      1896
      1896      1897      1896      1898      1896      1899      1899      1900
      1899      1901      1899      1902      1902      1903      1902      1904
      1902      1905      1905      1906      1905      1907      1905      1908
      1908      1909      1908      1910      1908      1911      1911      1912
      1911      1913      1913      1914      1913      1915      1915      1916
      1915      1917      1915      1918      1918      1919      1918      1920
      1918      1921      1921      1922      1921      1923      1921      1924
      1924      1925      1924      1926      1924      1927      1927      1928
      1927      1929      1927      1930      1930      1931      1930      1932
      1930      1933      1933      1934      1933      1935      1933      1936
      1936      1937      1936      1938      1936      1939      1887      1888
      1888      1890      1888      1889      1890      1891      1890      1892
      1890      1940      1940      1941      1940      1942      1940      1943
      1943      1944      1943      1945      1943      1946      1946      1947
      1946      1948      1946      1949      1949      1950      1949      1951
      1949      1952      1952      1953      1952      1954      1952      1955
      1955      1956      1955      1957      1955      1958      1958      1959
      1958      1960      1958      1961      1961      1962      1961      1963
      1961      1964      1964      1965      1964      1966      1964      1967
      1967      1968      1967      1969      1967      1970      1970      1971
      1970      1972      1970      1973      1973      1974      1973      1975
      1973      1976      1976      1977      1976      1978      1976      1979
      1979      1980      1979      1981      1979      1982      1983      1987
      1983      1991      1983      1995      1987      1988      1987      1989
      1987      1990      1991      1992      1991      1993      1991      1994
      1995      1996      1995      1997      1995      1998      1983      1984
      1984      1985      1984      1986      1984      1999      1999      2000
      1999      2001      1999      2005      2006      2007      2005      2002
      2002      2006      2002      2003      2002      2004      2007      2008
      2007      2009      2007      2010      2010      2011      2010      2018
      2010      2012      2018      2019      2018      2020      2018      2021
      2012      2013      2013      2015      2013      2014      2015      2016
      2015      2017      2015      2027      2027      2028      2027      2029
      2027      2030      2030      2031      2030      2032      2030      2033
      2033      2034      2033      2035      2033      2036      2036      2037
      2036      2038      2036      2039      2039      2040      2039      2041
      2039      2042      2042      2043      2042      2044      2042      2045
      2045      2046      2045      2047      2047      2048      2047      2049
      2049      2050      2049      2051      2049      2052      2052      2053
      2052      2054      2052      2055      2055      2056      2055      2057
      2055      2058      2058      2059      2058      2060      2058      2061
      2061      2062      2061      2063      2061      2064      2064      2065
      2064      2066      2064      2067      2067      2068      2067      2069
      2067      2070      2070      2071      2070      2072      2070      2073
      2021      2022      2022      2024      2022      2023      2024      2025
      2024      2026      2024      2074      2074      2075      2074      2076
      2074      2077      2077      2078      2077      2079      2077      2080
      2080      2081      2080      2082      2080      2083      2083      2084
      2083      2085      2083      2086      2086      2087      2086      2088
      2086      2089      2089      2090      2089      2091      2089      2092
      2092      2093      2092      2094      2092      2095      2095      2096
      2095      2097      2095      2098      2098      2099      2098      2100
      2098      2101      2101      2102      2101      2103      2101      2104
      2104      2105      2104      2106      2104      2107      2107      2108
      2107      2109      2107      2110      2110      2111      2110      2112
      2110      2113      2113      2114      2113      2115      2113      2116
      2117      2121      2117      2125      2117      2129      2121      2122
      2121      2123      2121      2124      2125      2126      2125      2127
      2125      2128      2129      2130      2129      2131      2129      2132
      2117      2118      2118      2119      2118      2120      2118      2133
      2133      2134      2133      2135      2133      2139      2140      2141
      2139      2136      2136      2140      2136      2137      2136      2138
      2141      2142      2141      2143      2141      2144      2144      2145
      2144      2152      2144      2146      2152      2153      2152      2154
      2152      2155      2146      2147      2147      2149      2147      2148
      2149      2150      2149      2151      2149      2161      2161      2162
      2161      2163      2161      2164      2164      2165      2164      2166
      2164      2167      2167      2168      2167      2169      2167      2170
      2170      2171      2170      2172      2170      2173      2173      2174
      2173      2175      2173      2176      2176      2177      2176      2178
      2176      2179      2179      2180      2179      2181      2181      2182
      2181      2183      2183      2184      2183      2185      2183      2186
      2186      2187      2186      2188      2186      2189      2189      2190
      2189      2191      2189      2192      2192      2193      2192      2194
      2192      2195      2195      2196      2195      2197      2195      2198
      2198      2199      2198      2200      2198      2201      2201      2202
      2201      2203      2201      2204      2204      2205      2204      2206
      2204      2207      2155      2156      2156      2158      2156      2157
      2158      2159      2158      2160      2158      2208      2208      2209
      2208      2210      2208      2211      2211      2212      2211      2213
      2211      2214      2214      2215      2214      2216      2214      2217
      2217      2218      2217      2219      2217      2220      2220      2221
      2220      2222      2220      2223      2223      2224      2223      2225
      2223      2226      2226      2227      2226      2228      2226      2229
      2229      2230      2229      2231      2229      2232      2232      2233
      2232      2234      2232      2235      2235      2236      2235      2237
      2235      2238      2238      2239      2238      2240      2238      2241
      2241      2242      2241      2243      2241      2244      2244      2245
      2244      2246      2244      2247      2247      2248      2247      2249
      2247      2250      2251      2255      2251      2259      2251      2263
      2255      2256      2255      2257      2255      2258      2259      2260
      2259      2261      2259      2262      2263      2264      2263      2265
      2263      2266      2251      2252      2252      2253      2252      2254
      2252      2267      2267      2268      2267      2269      2267      2273
      2274      2275      2273      2270      2270      2274      2270      2271
      2270      2272      2275      2276      2275      2277      2275      2278
      2278      2279      2278      2286      2278      2280      2286      2287
      2286      2288      2286      2289      2280      2281      2281      2283
      2281      2282      2283      2284      2283      2285      2283      2295
      2295      2296      2295      2297      2295      2298      2298      2299
      2298      2300      2298      2301      2301      2302      2301      2303
      2301      2304      2304      2305      2304      2306      2304      2307
      2307      2308      2307      2309      2307      2310      2310      2311
      2310      2312      2310      2313      2313      2314      2313      2315
      2315      2316      2315      2317      2317      2318      2317      2319
      2317      2320      2320      2321      2320      2322      2320      2323
      2323      2324      2323      2325      2323      2326      2326      2327
      2326      2328      2326      2329      2329      2330      2329      2331
      2329      2332      2332      2333      2332      2334      2332      2335
      2335      2336      2335      2337      2335      2338      2338      2339
      2338      2340      2338      2341      2289      2290      2290      2292
      2290      2291      2292      2293      2292      2294      2292      2342
      2342      2343      2342      2344      2342      2345      2345      2346
      2345      2347      2345      2348      2348      2349      2348      2350
      2348      2351      2351      2352      2351      2353      2351      2354
      2354      2355      2354      2356      2354      2357      2357      2358
      2357      2359      2357      2360      2360      2361      2360      2362
      2360      2363      2363      2364      2363      2365      2363      2366
      2366      2367      2366      2368      2366      2369      2369      2370
      2369      2371      2369      2372      2372      2373      2372      2374
      2372      2375      2375      2376      2375      2377      2375      2378
      2378      2379      2378      2380      2378      2381      2381      2382
      2381      2383      2381      2384      2385      2389      2385      2393
      2385      2397      2389      2390      2389      2391      2389      2392
      2393      2394      2393      2395      2393      2396      2397      2398
      2397      2399      2397      2400      2385      2386      2386      2387
      2386      2388      2386      2401      2401      2402      2401      2403
      2401      2407      2408      2409      2407      2404      2404      2408
      2404      2405      2404      2406      2409      2410      2409      2411
      2409      2412      2412      2413      2412      2420      2412      2414
      2420      2421      2420      2422      2420      2423      2414      2415
      2415      2417      2415      2416      2417      2418      2417      2419
      2417      2429      2429      2430      2429      2431      2429      2432
      2432      2433      2432      2434      2432      2435      2435      2436
      2435      2437      2435      2438      2438      2439      2438      2440
      2438      2441      2441      2442      2441      2443      2441      2444
      2444      2445      2444      2446      2444      2447      2447      2448
      2447      2449      2449      2450      2449      2451      2451      2452
      2451      2453      2451      2454      2454      2455      2454      2456
      2454      2457      2457      2458      2457      2459      2457      2460
      2460      2461      2460      2462      2460      2463      2463      2464
      2463      2465      2463      2466      2466      2467      2466      2468
      2466      2469      2469      2470      2469      2471      2469      2472
      2472      2473      2472      2474      2472      2475      2423      2424
      2424      2426      2424      2425      2426      2427      2426      2428
      2426      2476      2476      2477      2476      2478      2476      2479
      2479      2480      2479      2481      2479      2482      2482      2483
      2482      2484      2482      2485      2485      2486      2485      2487
      2485      2488      2488      2489      2488      2490      2488      2491
      2491      2492      2491      2493      2491      2494      2494      2495
      2494      2496      2494      2497      2497      2498      2497      2499
      2497      2500      2500      2501      2500      2502      2500      2503
      2503      2504      2503      2505      2503      2506      2506      2507
      2506      2508      2506      2509      2509      2510      2509      2511
      2509      2512      2512      2513      2512      2514      2512      2515
      2515      2516      2515      2517      2515      2518      2519      2523
      2519      2527      2519      2531      2523      2524      2523      2525
      2523      2526      2527      2528      2527      2529      2527      2530
      2531      2532      2531      2533      2531      2534      2519      2520
      2520      2521      2520      2522      2520      2535      2535      2536
      2535      2537      2535      2541      2542      2543      2541      2538
      2538      2542      2538      2539      2538      2540      2543      2544
      2543      2545      2543      2546      2546      2547      2546      2554
      2546      2548      2554      2555      2554      2556      2554      2557
      2548      2549      2549      2551      2549      2550      2551      2552
      2551      2553      2551      2563      2563      2564      2563      2565
      2563      2566      2566      2567      2566      2568      2566      2569
      2569      2570      2569      2571      2569      2572      2572      2573
      2572      2574      2572      2575      2575      2576      2575      2577
      2575      2578      2578      2579      2578      2580      2578      2581
      2581      2582      2581      2583      2583      2584      2583      2585
      2585      2586      2585      2587      2585      2588      2588      2589
      2588      2590      2588      2591      2591      2592      2591      2593
      2591      2594      2594      2595      2594      2596      2594      2597
      2597      2598      2597      2599      2597      2600      2600      2601
      2600      2602      2600      2603      2603      2604      2603      2605
      2603      2606      2606      2607      2606      2608      2606      2609
      2557      2558      2558      2560      2558      2559      2560      2561
      2560      2562      2560      2610      2610      2611      2610      2612
      2610      2613      2613      2614      2613      2615      2613      2616
      2616      2617      2616      2618      2616      2619      2619      2620
      2619      2621      2619      2622      2622      2623      2622      2624
      2622      2625      2625      2626      2625      2627      2625      2628
      2628      2629      2628      2630      2628      2631      2631      2632
      2631      2633      2631      2634      2634      2635      2634      2636
      2634      2637      2637      2638      2637      2639      2637      2640
      2640      2641      2640      2642      2640      2643      2643      2644
      2643      2645      2643      2646      2646      2647      2646      2648
      2646      2649      2649      2650      2649      2651      2649      2652
      2653      2657      2653      2661      2653      2665      2657      2658
      2657      2659      2657      2660      2661      2662      2661      2663
      2661      2664      2665      2666      2665      2667      2665      2668
      2653      2654      2654      2655      2654      2656      2654      2669
      2669      2670      2669      2671      2669      2675      2676      2677
      2675      2672      2672      2676      2672      2673      2672      2674
      2677      2678      2677      2679      2677      2680      2680      2681
      2680      2688      2680      2682      2688      2689      2688      2690
      2688      2691      2682      2683      2683      2685      2683      2684
      2685      2686      2685      2687      2685      2697      2697      2698
      2697      2699      2697      2700      2700      2701      2700      2702
      2700      2703      2703      2704      2703      2705      2703      2706
      2706      2707      2706      2708      2706      2709      2709      2710
      2709      2711      2709      2712      2712      2713      2712      2714
      2712      2715      2715      2716      2715      2717      2717      2718
      2717      2719      2719      2720      2719      2721      2719      2722
      2722      2723      2722      2724      2722      2725      2725      2726
      2725      2727      2725      2728      2728      2729      2728      2730
      2728      2731      2731      2732      2731      2733      2731      2734
      2734      2735      2734      2736      2734      2737      2737      2738
      2737      2739      2737      2740      2740      2741      2740      2742
      2740      2743      2691      2692      2692      2694      2692      2693
      2694      2695      2694      2696      2694      2744      2744      2745
      2744      2746      2744      2747      2747      2748      2747      2749
      2747      2750      2750      2751      2750      2752      2750      2753
      2753      2754      2753      2755      2753      2756      2756      2757
      2756      2758      2756      2759      2759      2760      2759      2761
      2759      2762      2762      2763      2762      2764      2762      2765
      2765      2766      2765      2767      2765      2768      2768      2769
      2768      2770      2768      2771      2771      2772      2771      2773
      2771      2774      2774      2775      2774      2776      2774      2777
      2777      2778      2777      2779      2777      2780      2780      2781
      2780      2782      2780      2783      2783      2784      2783      2785
      2783      2786      2787      2791      2787      2795      2787      2799
      2791      2792      2791      2793      2791      2794      2795      2796
      2795      2797      2795      2798      2799      2800      2799      2801
      2799      2802      2787      2788      2788      2789      2788      2790
      2788      2803      2803      2804      2803      2805      2803      2809
      2810      2811      2809      2806      2806      2810      2806      2807
      2806      2808      2811      2812      2811      2813      2811      2814
      2814      2815      2814      2822      2814      2816      2822      2823
      2822      2824      2822      2825      2816      2817      2817      2819
      2817      2818      2819      2820      2819      2821      2819      2831
      2831      2832      2831      2833      2831      2834      2834      2835
      2834      2836      2834      2837      2837      2838      2837      2839
      2837      2840      2840      2841      2840      2842      2840      2843
      2843      2844      2843      2845      2843      2846      2846      2847
      2846      2848      2846      2849      2849      2850      2849      2851
      2851      2852      2851      2853      2853      2854      2853      2855
      2853      2856      2856      2857      2856      2858      2856      2859
      2859      2860      2859      2861      2859      2862      2862      2863
      2862      2864      2862      2865      2865      2866      2865      2867
      2865      2868      2868      2869      2868      2870      2868      2871
      2871      2872      2871      2873      2871      2874      2874      2875
      2874      2876      2874      2877      2825      2826      2826      2828
      2826      2827      2828      2829      2828      2830      2828      2878
      2878      2879      2878      2880      2878      2881      2881      2882
      2881      2883      2881      2884      2884      2885      2884      2886
      2884      2887      2887      2888      2887      2889      2887      2890
      2890      2891      2890      2892      2890      2893      2893      2894
      2893      2895      2893      2896      2896      2897      2896      2898
      2896      2899      2899      2900      2899      2901      2899      2902
      2902      2903      2902      2904      2902      2905      2905      2906
      2905      2907      2905      2908      2908      2909      2908      2910
      2908      2911      2911      2912      2911      2913      2911      2914
      2914      2915      2914      2916      2914      2917      2917      2918
      2917      2919      2917      2920      2921      2925      2921      2929
      2921      2933      2925      2926      2925      2927      2925      2928
      2929      2930      2929      2931      2929      2932      2933      2934
      2933      2935      2933      2936      2921      2922      2922      2923
      2922      2924      2922      2937      2937      2938      2937      2939
      2937      2943      2944      2945      2943      2940      2940      2944
      2940      2941      2940      2942      2945      2946      2945      2947
      2945      2948      2948      2949      2948      2956      2948      2950
      2956      2957      2956      2958      2956      2959      2950      2951
      2951      2953      2951      2952      2953      2954      2953      2955
      2953      2965      2965      2966      2965      2967      2965      2968
      2968      2969      2968      2970      2968      2971      2971      2972
      2971      2973      2971      2974      2974      2975      2974      2976
      2974      2977      2977      2978      2977      2979      2977      2980
      2980      2981      2980      2982      2980      2983      2983      2984
      2983      2985      2985      2986      2985      2987      2987      2988
      2987      2989      2987      2990      2990      2991      2990      2992
      2990      2993      2993      2994      2993      2995      2993      2996
      2996      2997      2996      2998      2996      2999      2999      3000
      2999      3001      2999      3002      3002      3003      3002      3004
      3002      3005      3005      3006      3005      3007      3005      3008
      3008      3009      3008      3010      3008      3011      2959      2960
      2960      2962      2960      2961      2962      2963      2962      2964
      2962      3012      3012      3013      3012      3014      3012      3015
      3015      3016      3015      3017      3015      3018      3018      3019
      3018      3020      3018      3021      3021      3022      3021      3023
      3021      3024      3024      3025      3024      3026      3024      3027
      3027      3028      3027      3029      3027      3030      3030      3031
      3030      3032      3030      3033      3033      3034      3033      3035
      3033      3036      3036      3037      3036      3038      3036      3039
      3039      3040      3039      3041      3039      3042      3042      3043
      3042      3044      3042      3045      3045      3046      3045      3047
      3045      3048      3048      3049      3048      3050      3048      3051
      3051      3052      3051      3053      3051      3054      3055      3056
      3055      3057      3055      3058      3055      3059      3063      3061
      3061      3059      3061      3062      3059      3060      3059      3064
      3072      3071      3064      3065      3064      3066      3064      3070
      3070      3067      3067      3071      3067      3068      3067      3069
      3072      3073      3072      3074      3072      3075      3075      3076
      3075      3083      3075      3077      3083      3084      3083      3085
      3083      3086      3077      3078      3078      3080      3078      3079
      3080      3081      3080      3082      3080      3092      3092      3093
      3092      3094      3092      3095      3095      3096      3095      3097
      3095      3098      3098      3099      3098      3100      3098      3101
      3101      3102      3101      3103      3101      3104      3104      3105
      3104      3106      3104      3107      3107      3108      3107      3109
      3107      3110      3110      3111      3110      3112      3112      3113
      3112      3114      3114      3115      3114      3116      3114      3117
      3117      3118      3117      3119      3117      3120      3120      3121
      3120      3122      3120      3123      3123      3124      3123      3125
      3123      3126      3126      3127      3126      3128      3126      3129
      3129      3130      3129      3131      3129      3132      3132      3133
      3132      3134      3132      3135      3135      3136      3135      3137
      3135      3138      3086      3087      3087      3089      3087      3088
      3089      3090      3089      3091      3089      3139      3139      3140
      3139      3141      3139      3142      3142      3143      3142      3144
      3142      3145      3145      3146      3145      3147      3145      3148
      3148      3149      3148      3150      3148      3151      3151      3152
      3151      3153      3151      3154      3154      3155      3154      3156
      3154      3157      3157      3158      3157      3159      3157      3160
      3160      3161      3160      3162      3160      3163      3163      3164
      3163      3165      3163      3166      3166      3167      3166      3168
      3166      3169      3169      3170      3169      3171      3169      3172
      3172      3173      3172      3174      3172      3175      3175      3176
      3175      3177      3175      3178      3178      3179      3178      3180
      3178      3181      3182      3183      3182      3184      3182      3185
      3182      3186      3190      3188      3188      3186      3188      3189
      3186      3187      3186      3191      3199      3198      3191      3192
      3191      3193      3191      3197      3197      3194      3194      3198
      3194      3195      3194      3196      3199      3200      3199      3201
      3199      3202      3202      3203      3202      3210      3202      3204
      3210      3211      3210      3212      3210      3213      3204      3205
      3205      3207      3205      3206      3207      3208      3207      3209
      3207      3219      3219      3220      3219      3221      3219      3222
      3222      3223      3222      3224      3222      3225      3225      3226
      3225      3227      3225      3228      3228      3229      3228      3230
      3228      3231      3231      3232      3231      3233      3231      3234
      3234      3235      3234      3236      3234      3237      3237      3238
      3237      3239      3239      3240      3239      3241      3241      3242
      3241      3243      3241      3244      3244      3245      3244      3246
      3244      3247      3247      3248      3247      3249      3247      3250
      3250      3251      3250      3252      3250      3253      3253      3254
      3253      3255      3253      3256      3256      3257      3256      3258
      3256      3259      3259      3260      3259      3261      3259      3262
      3262      3263      3262      3264      3262      3265      3213      3214
      3214      3216      3214      3215      3216      3217      3216      3218
      3216      3266      3266      3267      3266      3268      3266      3269
      3269      3270      3269      3271      3269      3272      3272      3273
      3272      3274      3272      3275      3275      3276      3275      3277
      3275      3278      3278      3279      3278      3280      3278      3281
      3281      3282      3281      3283      3281      3284      3284      3285
      3284      3286      3284      3287      3287      3288      3287      3289
      3287      3290      3290      3291      3290      3292      3290      3293
      3293      3294      3293      3295      3293      3296      3296      3297
      3296      3298      3296      3299      3299      3300      3299      3301
      3299      3302      3302      3303      3302      3304      3302      3305
      3305      3306      3305      3307      3305      3308      3309      3313
      3309      3317      3309      3321      3313      3314      3313      3315
      3313      3316      3317      3318      3317      3319      3317      3320
      3321      3322      3321      3323      3321      3324      3309      3310
      3310      3311      3310      3312      3310      3325      3325      3326
      3325      3327      3325      3331      3332      3333      3331      3328
      3328      3332      3328      3329      3328      3330      3333      3334
      3333      3335      3333      3336      3336      3337      3336      3344
      3336      3338      3344      3345      3344      3346      3344      3347
      3338      3339      3339      3341      3339      3340      3341      3342
      3341      3343      3341      3353      3353      3354      3353      3355
      3353      3356      3356      3357      3356      3358      3356      3359
      3359      3360      3359      3361      3359      3362      3362      3363
      3362      3364      3362      3365      3365      3366      3365      3367
      3365      3368      3368      3369      3368      3370      3368      3371
      3371      3372      3371      3373      3373      3374      3373      3375
      3375      3376      3375      3377      3375      3378      3378      3379
      3378      3380      3378      3381      3381      3382      3381      3383
      3381      3384      3384      3385      3384      3386      3384      3387
      3387      3388      3387      3389      3387      3390      3390      3391
      3390      3392      3390      3393      3393      3394      3393      3395
      3393      3396      3396      3397      3396      3398      3396      3399
      3347      3348      3348      3350      3348      3349      3350      3351
      3350      3352      3350      3400      3400      3401      3400      3402
      3400      3403      3403      3404      3403      3405      3403      3406
      3406      3407      3406      3408      3406      3409      3409      3410
      3409      3411      3409      3412      3412      3413      3412      3414
      3412      3415      3415      3416      3415      3417      3415      3418
      3418      3419      3418      3420      3418      3421      3421      3422
      3421      3423      3421      3424      3424      3425      3424      3426
      3424      3427      3427      3428      3427      3429      3427      3430
      3430      3431      3430      3432      3430      3433      3433      3434
      3433      3435      3433      3436      3436      3437      3436      3438
      3436      3439      3439      3440      3439      3441      3439      3442
      3443      3447      3443      3451      3443      3455      3447      3448
      3447      3449      3447      3450      3451      3452      3451      3453
      3451      3454      3455      3456      3455      3457      3455      3458
      3443      3444      3444      3445      3444      3446      3444      3459
      3459      3460      3459      3461      3459      3465      3466      3467
      3465      3462      3462      3466      3462      3463      3462      3464
      3467      3468      3467      3469      3467      3470      3470      3471
      3470      3478      3470      3472      3478      3479      3478      3480
      3478      3481      3472      3473      3473      3475      3473      3474
      3475      3476      3475      3477      3475      3487      3487      3488
      3487      3489      3487      3490      3490      3491      3490      3492
      3490      3493      3493      3494      3493      3495      3493      3496
      3496      3497      3496      3498      3496      3499      3499      3500
      3499      3501      3499      3502      3502      3503      3502      3504
      3502      3505      3505      3506      3505      3507      3507      3508
      3507      3509      3509      3510      3509      3511      3509      3512
      3512      3513      3512      3514      3512      3515      3515      3516
      3515      3517      3515      3518      3518      3519      3518      3520
      3518      3521      3521      3522      3521      3523      3521      3524
      3524      3525      3524      3526      3524      3527      3527      3528
      3527      3529      3527      3530      3530      3531      3530      3532
      3530      3533      3481      3482      3482      3484      3482      3483
      3484      3485      3484      3486      3484      3534      3534      3535
      3534      3536      3534      3537      3537      3538      3537      3539
      3537      3540      3540      3541      3540      3542      3540      3543
      3543      3544      3543      3545      3543      3546      3546      3547
      3546      3548      3546      3549      3549      3550      3549      3551
      3549      3552      3552      3553      3552      3554      3552      3555
      3555      3556      3555      3557      3555      3558      3558      3559
      3558      3560      3558      3561      3561      3562      3561      3563
      3561      3564      3564      3565      3564      3566      3564      3567
      3567      3568      3567      3569      3567      3570      3570      3571
      3570      3572      3570      3573      3573      3574      3573      3575
      3573      3576      3577      3581      3577      3585      3577      3589
      3581      3582      3581      3583      3581      3584      3585      3586
      3585      3587      3585      3588      3589      3590      3589      3591
      3589      3592      3577      3578      3578      3579      3578      3580
      3578      3593      3593      3594      3593      3595      3593      3599
      3600      3601      3599      3596      3596      3600      3596      3597
      3596      3598      3601      3602      3601      3603      3601      3604
      3604      3605      3604      3612      3604      3606      3612      3613
      3612      3614      3612      3615      3606      3607      3607      3609
      3607      3608      3609      3610      3609      3611      3609      3621
      3621      3622      3621      3623      3621      3624      3624      3625
      3624      3626      3624      3627      3627      3628      3627      3629
      3627      3630      3630      3631      3630      3632      3630      3633
      3633      3634      3633      3635      3633      3636      3636      3637
      3636      3638      3636      3639      3639      3640      3639      3641
      3641      3642      3641      3643      3643      3644      3643      3645
      3643      3646      3646      3647      3646      3648      3646      3649
      3649      3650      3649      3651      3649      3652      3652      3653
      3652      3654      3652      3655      3655      3656      3655      3657
      3655      3658      3658      3659      3658      3660      3658      3661
      3661      3662      3661      3663      3661      3664      3664      3665
      3664      3666      3664      3667      3615      3616      3616      3618
      3616      3617      3618      3619      3618      3620      3618      3668
      3668      3669      3668      3670      3668      3671      3671      3672
      3671      3673      3671      3674      3674      3675      3674      3676
      3674      3677      3677      3678      3677      3679      3677      3680
      3680      3681      3680      3682      3680      3683      3683      3684
      3683      3685      3683      3686      3686      3687      3686      3688
      3686      3689      3689      3690      3689      3691      3689      3692
      3692      3693      3692      3694      3692      3695      3695      3696
      3695      3697      3695      3698      3698      3699      3698      3700
      3698      3701      3701      3702      3701      3703      3701      3704
      3704      3705      3704      3706      3704      3707      3707      3708
      3707      3709      3707      3710      3711      3715      3711      3719
      3711      3723      3715      3716      3715      3717      3715      3718
      3719      3720      3719      3721      3719      3722      3723      3724
      3723      3725      3723      3726      3711      3712      3712      3713
      3712      3714      3712      3727      3727      3728      3727      3729
      3727      3733      3734      3735      3733      3730      3730      3734
      3730      3731      3730      3732      3735      3736      3735      3737
      3735      3738      3738      3739      3738      3746      3738      3740
      3746      3747      3746      3748      3746      3749      3740      3741
      3741      3743      3741      3742      3743      3744      3743      3745
      3743      3755      3755      3756      3755      3757      3755      3758
      3758      3759      3758      3760      3758      3761      3761      3762
      3761      3763      3761      3764      3764      3765      3764      3766
      3764      3767      3767      3768      3767      3769      3767      3770
      3770      3771      3770      3772      3770      3773      3773      3774
      3773      3775      3775      3776      3775      3777      3777      3778
      3777      3779      3777      3780      3780      3781      3780      3782
      3780      3783      3783      3784      3783      3785      3783      3786
      3786      3787      3786      3788      3786      3789      3789      3790
      3789      3791      3789      3792      3792      3793      3792      3794
      3792      3795      3795      3796      3795      3797      3795      3798
      3798      3799      3798      3800      3798      3801      3749      3750
      3750      3752      3750      3751      3752      3753      3752      3754
      3752      3802      3802      3803      3802      3804      3802      3805
      3805      3806      3805      3807      3805      3808      3808      3809
      3808      3810      3808      3811      3811      3812      3811      3813
      3811      3814      3814      3815      3814      3816      3814      3817
      3817      3818      3817      3819      3817      3820      3820      3821
      3820      3822      3820      3823      3823      3824      3823      3825
      3823      3826      3826      3827      3826      3828      3826      3829
      3829      3830      3829      3831      3829      3832      3832      3833
      3832      3834      3832      3835      3835      3836      3835      3837
      3835      3838      3838      3839      3838      3840      3838      3841
      3841      3842      3841      3843      3841      3844      3845      3849
      3845      3853      3845      3857      3849      3850      3849      3851
      3849      3852      3853      3854      3853      3855      3853      3856
      3857      3858      3857      3859      3857      3860      3845      3846
      3846      3847      3846      3848      3846      3861      3861      3862
      3861      3863      3861      3867      3868      3869      3867      3864
      3864      3868      3864      3865      3864      3866      3869      3870
      3869      3871      3869      3872      3872      3873      3872      3880
      3872      3874      3880      3881      3880      3882      3880      3883
      3874      3875      3875      3877      3875      3876      3877      3878
      3877      3879      3877      3889      3889      3890      3889      3891
      3889      3892      3892      3893      3892      3894      3892      3895
      3895      3896      3895      3897      3895      3898      3898      3899
      3898      3900      3898      3901      3901      3902      3901      3903
      3901      3904      3904      3905      3904      3906      3904      3907
      3907      3908      3907      3909      3909      3910      3909      3911
      3911      3912      3911      3913      3911      3914      3914      3915
      3914      3916      3914      3917      3917      3918      3917      3919
      3917      3920      3920      3921      3920      3922      3920      3923
      3923      3924      3923      3925      3923      3926      3926      3927
      3926      3928      3926      3929      3929      3930      3929      3931
      3929      3932      3932      3933      3932      3934      3932      3935
      3883      3884      3884      3886      3884      3885      3886      3887
      3886      3888      3886      3936      3936      3937      3936      3938
      3936      3939      3939      3940      3939      3941      3939      3942
      3942      3943      3942      3944      3942      3945      3945      3946
      3945      3947      3945      3948      3948      3949      3948      3950
      3948      3951      3951      3952      3951      3953      3951      3954
      3954      3955      3954      3956      3954      3957      3957      3958
      3957      3959      3957      3960      3960      3961      3960      3962
      3960      3963      3963      3964      3963      3965      3963      3966
      3966      3967      3966      3968      3966      3969      3969      3970
      3969      3971      3969      3972      3972      3973      3972      3974
      3972      3975      3975      3976      3975      3977      3975      3978
      3979      3980      3979      3981      3979      3982      3979      3983
      3987      3985      3985      3983      3985      3986      3983      3984
      3983      3988      3996      3995      3988      3989      3988      3990
      3988      3994      3994      3991      3991      3995      3991      3992
      3991      3993      3996      3997      3996      3998      3996      3999
      3999      4000      3999      4007      3999      4001      4007      4008
      4007      4009      4007      4010      4001      4002      4002      4004
      4002      4003      4004      4005      4004      4006      4004      4016
      4016      4017      4016      4018      4016      4019      4019      4020
      4019      4021      4019      4022      4022      4023      4022      4024
      4022      4025      4025      4026      4025      4027      4025      4028
      4028      4029      4028      4030      4028      4031      4031      4032
      4031      4033      4031      4034      4034      4035      4034      4036
      4036      4037      4036      4038      4038      4039      4038      4040
      4038      4041      4041      4042      4041      4043      4041      4044
      4044      4045      4044      4046      4044      4047      4047      4048
      4047      4049      4047      4050      4050      4051      4050      4052
      4050      4053      4053      4054      4053      4055      4053      4056
      4056      4057      4056      4058      4056      4059      4059      4060
      4059      4061      4059      4062      4010      4011      4011      4013
      4011      4012      4013      4014      4013      4015      4013      4063
      4063      4064      4063      4065      4063      4066      4066      4067
      4066      4068      4066      4069      4069      4070      4069      4071
      4069      4072      4072      4073      4072      4074      4072      4075
      4075      4076      4075      4077      4075      4078      4078      4079
      4078      4080      4078      4081      4081      4082      4081      4083
      4081      4084      4084      4085      4084      4086      4084      4087
      4087      4088      4087      4089      4087      4090      4090      4091
      4090      4092      4090      4093      4093      4094      4093      4095
      4093      4096      4096      4097      4096      4098      4096      4099
      4099      4100      4099      4101      4099      4102      4102      4103
      4102      4104      4102      4105      4106      4110      4106      4114
      4106      4118      4110      4111      4110      4112      4110      4113
      4114      4115      4114      4116      4114      4117      4118      4119
      4118      4120      4118      4121      4106      4107      4107      4108
      4107      4109      4107      4122      4122      4123      4122      4124
      4122      4128      4129      4130      4128      4125      4125      4129
      4125      4126      4125      4127      4130      4131      4130      4132
      4130      4133      4133      4134      4133      4141      4133      4135
      4141      4142      4141      4143      4141      4144      4135      4136
      4136      4138      4136      4137      4138      4139      4138      4140
      4138      4150      4150      4151      4150      4152      4150      4153
      4153      4154      4153      4155      4153      4156      4156      4157
      4156      4158      4156      4159      4159      4160      4159      4161
      4159      4162      4162      4163      4162      4164      4162      4165
      4165      4166      4165      4167      4165      4168      4168      4169
      4168      4170      4170      4171      4170      4172      4172      4173
      4172      4174      4172      4175      4175      4176      4175      4177
      4175      4178      4178      4179      4178      4180      4178      4181
      4181      4182      4181      4183      4181      4184      4184      4185
      4184      4186      4184      4187      4187      4188      4187      4189
      4187      4190      4190      4191      4190      4192      4190      4193
      4193      4194      4193      4195      4193      4196      4144      4145
      4145      4147      4145      4146      4147      4148      4147      4149
      4147      4197      4197      4198      4197      4199      4197      4200
      4200      4201      4200      4202      4200      4203      4203      4204
      4203      4205      4203      4206      4206      4207      4206      4208
      4206      4209      4209      4210      4209      4211      4209      4212
      4212      4213      4212      4214      4212      4215      4215      4216
      4215      4217      4215      4218      4218      4219      4218      4220
      4218      4221      4221      4222      4221      4223      4221      4224
      4224      4225      4224      4226      4224      4227      4227      4228
      4227      4229      4227      4230      4230      4231      4230      4232
      4230      4233      4233      4234      4233      4235      4233      4236
      4236      4237      4236      4238      4236      4239      4240      4244
      4240      4248      4240      4252      4244      4245      4244      4246
      4244      4247      4248      4249      4248      4250      4248      4251
      4252      4253      4252      4254      4252      4255      4240      4241
      4241      4242      4241      4243      4241      4256      4256      4257
      4256      4258      4256      4262      4263      4264      4262      4259
      4259      4263      4259      4260      4259      4261      4264      4265
      4264      4266      4264      4267      4267      4268      4267      4275
      4267      4269      4275      4276      4275      4277      4275      4278
      4269      4270      4270      4272      4270      4271      4272      4273
      4272      4274      4272      4284      4284      4285      4284      4286
      4284      4287      4287      4288      4287      4289      4287      4290
      4290      4291      4290      4292      4290      4293      4293      4294
      4293      4295      4293      4296      4296      4297      4296      4298
      4296      4299      4299      4300      4299      4301      4299      4302
      4302      4303      4302      4304      4304      4305      4304      4306
      4306      4307      4306      4308      4306      4309      4309      4310
      4309      4311      4309      4312      4312      4313      4312      4314
      4312      4315      4315      4316      4315      4317      4315      4318
      4318      4319      4318      4320      4318      4321      4321      4322
      4321      4323      4321      4324      4324      4325      4324      4326
      4324      4327      4327      4328      4327      4329      4327      4330
      4278      4279      4279      4281      4279      4280      4281      4282
      4281      4283      4281      4331      4331      4332      4331      4333
      4331      4334      4334      4335      4334      4336      4334      4337
      4337      4338      4337      4339      4337      4340      4340      4341
      4340      4342      4340      4343      4343      4344      4343      4345
      4343      4346      4346      4347      4346      4348      4346      4349
      4349      4350      4349      4351      4349      4352      4352      4353
      4352      4354      4352      4355      4355      4356      4355      4357
      4355      4358      4358      4359      4358      4360      4358      4361
      4361      4362      4361      4363      4361      4364      4364      4365
      4364      4366      4364      4367      4367      4368      4367      4369
      4367      4370      4370      4371      4370      4372      4370      4373
      4374      4378      4374      4382      4374      4386      4378      4379
      4378      4380      4378      4381      4382      4383      4382      4384
      4382      4385      4386      4387      4386      4388      4386      4389
      4374      4375      4375      4376      4375      4377      4375      4390
      4390      4391      4390      4392      4390      4396      4397      4398
      4396      4393      4393      4397      4393      4394      4393      4395
      4398      4399      4398      4400      4398      4401      4401      4402
      4401      4409      4401      4403      4409      4410      4409      4411
      4409      4412      4403      4404      4404      4406      4404      4405
      4406      4407      4406      4408      4406      4418      4418      4419
      4418      4420      4418      4421      4421      4422      4421      4423
      4421      4424      4424      4425      4424      4426      4424      4427
      4427      4428      4427      4429      4427      4430      4430      4431
      4430      4432      4430      4433      4433      4434      4433      4435
      4433      4436      4436      4437      4436      4438      4438      4439
      4438      4440      4440      4441      4440      4442      4440      4443
      4443      4444      4443      4445      4443      4446      4446      4447
      4446      4448      4446      4449      4449      4450      4449      4451
      4449      4452      4452      4453      4452      4454      4452      4455
      4455      4456      4455      4457      4455      4458      4458      4459
      4458      4460      4458      4461      4461      4462      4461      4463
      4461      4464      4412      4413      4413      4415      4413      4414
      4415      4416      4415      4417      4415      4465      4465      4466
      4465      4467      4465      4468      4468      4469      4468      4470
      4468      4471      4471      4472      4471      4473      4471      4474
      4474      4475      4474      4476      4474      4477      4477      4478
      4477      4479      4477      4480      4480      4481      4480      4482
      4480      4483      4483      4484      4483      4485      4483      4486
      4486      4487      4486      4488      4486      4489      4489      4490
      4489      4491      4489      4492      4492      4493      4492      4494
      4492      4495      4495      4496      4495      4497      4495      4498
      4498      4499      4498      4500      4498      4501      4501      4502
      4501      4503      4501      4504      4504      4505      4504      4506
      4504      4507      4508      4509      4508      4510      4508      4511
      4508      4512      4516      4514      4514      4512      4514      4515
      4512      4513      4512      4517      4525      4524      4517      4518
      4517      4519      4517      4523      4523      4520      4520      4524
      4520      4521      4520      4522      4525      4526      4525      4527
      4525      4528      4528      4529      4528      4536      4528      4530
      4536      4537      4536      4538      4536      4539      4530      4531
      4531      4533      4531      4532      4533      4534      4533      4535
      4533      4545      4545      4546      4545      4547      4545      4548
      4548      4549      4548      4550      4548      4551      4551      4552
      4551      4553      4551      4554      4554      4555      4554      4556
      4554      4557      4557      4558      4557      4559      4557      4560
      4560      4561      4560      4562      4560      4563      4563      4564
      4563      4565      4565      4566      4565      4567      4567      4568
      4567      4569      4567      4570      4570      4571      4570      4572
      4570      4573      4573      4574      4573      4575      4573      4576
      4576      4577      4576      4578      4576      4579      4579      4580
      4579      4581      4579      4582      4582      4583      4582      4584
      4582      4585      4585      4586      4585      4587      4585      4588
      4588      4589      4588      4590      4588      4591      4539      4540
      4540      4542      4540      4541      4542      4543      4542      4544
      4542      4592      4592      4593      4592      4594      4592      4595
      4595      4596      4595      4597      4595      4598      4598      4599
      4598      4600      4598      4601      4601      4602      4601      4603
      4601      4604      4604      4605      4604      4606      4604      4607
      4607      4608      4607      4609      4607      4610      4610      4611
      4610      4612      4610      4613      4613      4614      4613      4615
      4613      4616      4616      4617      4616      4618      4616      4619
      4619      4620      4619      4621      4619      4622      4622      4623
      4622      4624      4622      4625      4625      4626      4625      4627
      4625      4628      4628      4629      4628      4630      4628      4631
      4631      4632      4631      4633      4631      4634      4635      4639
      4635      4643      4635      4647      4639      4640      4639      4641
      4639      4642      4643      4644      4643      4645      4643      4646
      4647      4648      4647      4649      4647      4650      4635      4636
      4636      4637      4636      4638      4636      4651      4651      4652
      4651      4653      4651      4657      4658      4659      4657      4654
      4654      4658      4654      4655      4654      4656      4659      4660
      4659      4661      4659      4662      4662      4663      4662      4670
      4662      4664      4670      4671      4670      4672      4670      4673
      4664      4665      4665      4667      4665      4666      4667      4668
      4667      4669      4667      4679      4679      4680      4679      4681
      4679      4682      4682      4683      4682      4684      4682      4685
      4685      4686      4685      4687      4685      4688      4688      4689
      4688      4690      4688      4691      4691      4692      4691      4693
      4691      4694      4694      4695      4694      4696      4694      4697
      4697      4698      4697      4699      4699      4700      4699      4701
      4701      4702      4701      4703      4701      4704      4704      4705
      4704      4706      4704      4707      4707      4708      4707      4709
      4707      4710      4710      4711      4710      4712      4710      4713
      4713      4714      4713      4715      4713      4716      4716      4717
      4716      4718      4716      4719      4719      4720      4719      4721
      4719      4722      4722      4723      4722      4724      4722      4725
      4673      4674      4674      4676      4674      4675      4676      4677
      4676      4678      4676      4726      4726      4727      4726      4728
      4726      4729      4729      4730      4729      4731      4729      4732
      4732      4733      4732      4734      4732      4735      4735      4736
      4735      4737      4735      4738      4738      4739      4738      4740
      4738      4741      4741      4742      4741      4743      4741      4744
      4744      4745      4744      4746      4744      4747      4747      4748
      4747      4749      4747      4750      4750      4751      4750      4752
      4750      4753      4753      4754      4753      4755      4753      4756
      4756      4757      4756      4758      4756      4759      4759      4760
      4759      4761      4759      4762      4762      4763      4762      4764
      4762      4765      4765      4766      4765      4767      4765      4768
      4769      4773      4769      4777      4769      4781      4773      4774
      4773      4775      4773      4776      4777      4778      4777      4779
      4777      4780      4781      4782      4781      4783      4781      4784
      4769      4770      4770      4771      4770      4772      4770      4785
      4785      4786      4785      4787      4785      4791      4792      4793
      4791      4788      4788      4792      4788      4789      4788      4790
      4793      4794      4793      4795      4793      4796      4796      4797
      4796      4804      4796      4798      4804      4805      4804      4806
      4804      4807      4798      4799      4799      4801      4799      4800
      4801      4802      4801      4803      4801      4813      4813      4814
      4813      4815      4813      4816      4816      4817      4816      4818
      4816      4819      4819      4820      4819      4821      4819      4822
      4822      4823      4822      4824      4822      4825      4825      4826
      4825      4827      4825      4828      4828      4829      4828      4830
      4828      4831      4831      4832      4831      4833      4833      4834
      4833      4835      4835      4836      4835      4837      4835      4838
      4838      4839      4838      4840      4838      4841      4841      4842
      4841      4843      4841      4844      4844      4845      4844      4846
      4844      4847      4847      4848      4847      4849      4847      4850
      4850      4851      4850      4852      4850      4853      4853      4854
      4853      4855      4853      4856      4856      4857      4856      4858
      4856      4859      4807      4808      4808      4810      4808      4809
      4810      4811      4810      4812      4810      4860      4860      4861
      4860      4862      4860      4863      4863      4864      4863      4865
      4863      4866      4866      4867      4866      4868      4866      4869
      4869      4870      4869      4871      4869      4872      4872      4873
      4872      4874      4872      4875      4875      4876      4875      4877
      4875      4878      4878      4879      4878      4880      4878      4881
      4881      4882      4881      4883      4881      4884      4884      4885
      4884      4886      4884      4887      4887      4888      4887      4889
      4887      4890      4890      4891      4890      4892      4890      4893
      4893      4894      4893      4895      4893      4896      4896      4897
      4896      4898      4896      4899      4899      4900      4899      4901
      4899      4902      4903      4907      4903      4911      4903      4915
      4907      4908      4907      4909      4907      4910      4911      4912
      4911      4913      4911      4914      4915      4916      4915      4917
      4915      4918      4903      4904      4904      4905      4904      4906
      4904      4919      4919      4920      4919      4921      4919      4925
      4926      4927      4925      4922      4922      4926      4922      4923
      4922      4924      4927      4928      4927      4929      4927      4930
      4930      4931      4930      4938      4930      4932      4938      4939
      4938      4940      4938      4941      4932      4933      4933      4935
      4933      4934      4935      4936      4935      4937      4935      4947
      4947      4948      4947      4949      4947      4950      4950      4951
      4950      4952      4950      4953      4953      4954      4953      4955
      4953      4956      4956      4957      4956      4958      4956      4959
      4959      4960      4959      4961      4959      4962      4962      4963
      4962      4964      4962      4965      4965      4966      4965      4967
      4967      4968      4967      4969      4969      4970      4969      4971
      4969      4972      4972      4973      4972      4974      4972      4975
      4975      4976      4975      4977      4975      4978      4978      4979
      4978      4980      4978      4981      4981      4982      4981      4983
      4981      4984      4984      4985      4984      4986      4984      4987
      4987      4988      4987      4989      4987      4990      4990      4991
      4990      4992      4990      4993      4941      4942      4942      4944
      4942      4943      4944      4945      4944      4946      4944      4994
      4994      4995      4994      4996      4994      4997      4997      4998
      4997      4999      4997      5000      5000      5001      5000      5002
      5000      5003      5003      5004      5003      5005      5003      5006
      5006      5007      5006      5008      5006      5009      5009      5010
      5009      5011      5009      5012      5012      5013      5012      5014
      5012      5015      5015      5016      5015      5017      5015      5018
      5018      5019      5018      5020      5018      5021      5021      5022
      5021      5023      5021      5024      5024      5025      5024      5026
      5024      5027      5027      5028      5027      5029      5027      5030
      5030      5031      5030      5032      5030      5033      5033      5034
      5033      5035      5033      5036      5037      5041      5037      5045
      5037      5049      5041      5042      5041      5043      5041      5044
      5045      5046      5045      5047      5045      5048      5049      5050
      5049      5051      5049      5052      5037      5038      5038      5039
      5038      5040      5038      5053      5053      5054      5053      5055
      5053      5059      5060      5061      5059      5056      5056      5060
      5056      5057      5056      5058      5061      5062      5061      5063
      5061      5064      5064      5065      5064      5072      5064      5066
      5072      5073      5072      5074      5072      5075      5066      5067
      5067      5069      5067      5068      5069      5070      5069      5071
      5069      5081      5081      5082      5081      5083      5081      5084
      5084      5085      5084      5086      5084      5087      5087      5088
      5087      5089      5087      5090      5090      5091      5090      5092
      5090      5093      5093      5094      5093      5095      5093      5096
      5096      5097      5096      5098      5096      5099      5099      5100
      5099      5101      5101      5102      5101      5103      5103      5104
      5103      5105      5103      5106      5106      5107      5106      5108
      5106      5109      5109      5110      5109      5111      5109      5112
      5112      5113      5112      5114      5112      5115      5115      5116
      5115      5117      5115      5118      5118      5119      5118      5120
      5118      5121      5121      5122      5121      5123      5121      5124
      5124      5125      5124      5126      5124      5127      5075      5076
      5076      5078      5076      5077      5078      5079      5078      5080
      5078      5128      5128      5129      5128      5130      5128      5131
      5131      5132      5131      5133      5131      5134      5134      5135
      5134      5136      5134      5137      5137      5138      5137      5139
      5137      5140      5140      5141      5140      5142      5140      5143
      5143      5144      5143      5145      5143      5146      5146      5147
      5146      5148      5146      5149      5149      5150      5149      5151
      5149      5152      5152      5153      5152      5154      5152      5155
      5155      5156      5155      5157      5155      5158      5158      5159
      5158      5160      5158      5161      5161      5162      5161      5163
      5161      5164      5164      5165      5164      5166      5164      5167
      5167      5168      5167      5169      5167      5170      5171      5175
      5171      5179      5171      5183      5175      5176      5175      5177
      5175      5178      5179      5180      5179      5181      5179      5182
      5183      5184      5183      5185      5183      5186      5171      5172
      5172      5173      5172      5174      5172      5187      5187      5188
      5187      5189      5187      5193      5194      5195      5193      5190
      5190      5194      5190      5191      5190      5192      5195      5196
      5195      5197      5195      5198      5198      5199      5198      5206
      5198      5200      5206      5207      5206      5208      5206      5209
      5200      5201      5201      5203      5201      5202      5203      5204
      5203      5205      5203      5215      5215      5216      5215      5217
      5215      5218      5218      5219      5218      5220      5218      5221
      5221      5222      5221      5223      5221      5224      5224      5225
      5224      5226      5224      5227      5227      5228      5227      5229
      5227      5230      5230      5231      5230      5232      5230      5233
      5233      5234      5233      5235      5235      5236      5235      5237
      5237      5238      5237      5239      5237      5240      5240      5241
      5240      5242      5240      5243      5243      5244      5243      5245
      5243      5246      5246      5247      5246      5248      5246      5249
      5249      5250      5249      5251      5249      5252      5252      5253
      5252      5254      5252      5255      5255      5256      5255      5257
      5255      5258      5258      5259      5258      5260      5258      5261
      5209      5210      5210      5212      5210      5211      5212      5213
      5212      5214      5212      5262      5262      5263      5262      5264
      5262      5265      5265      5266      5265      5267      5265      5268
      5268      5269      5268      5270      5268      5271      5271      5272
      5271      5273      5271      5274      5274      5275      5274      5276
      5274      5277      5277      5278      5277      5279      5277      5280
      5280      5281      5280      5282      5280      5283      5283      5284
      5283      5285      5283      5286      5286      5287      5286      5288
      5286      5289      5289      5290      5289      5291      5289      5292
      5292      5293      5292      5294      5292      5295      5295      5296
      5295      5297      5295      5298      5298      5299      5298      5300
      5298      5301      5301      5302      5301      5303      5301      5304
      5305      5309      5305      5313      5305      5317      5309      5310
      5309      5311      5309      5312      5313      5314      5313      5315
      5313      5316      5317      5318      5317      5319      5317      5320
      5305      5306      5306      5307      5306      5308      5306      5321
      5321      5322      5321      5323      5321      5327      5328      5329
      5327      5324      5324      5328      5324      5325      5324      5326
      5329      5330      5329      5331      5329      5332      5332      5333
      5332      5340      5332      5334      5340      5341      5340      5342
      5340      5343      5334      5335      5335      5337      5335      5336
      5337      5338      5337      5339      5337      5349      5349      5350
      5349      5351      5349      5352      5352      5353      5352      5354
      5352      5355      5355      5356      5355      5357      5355      5358
      5358      5359      5358      5360      5358      5361      5361      5362
      5361      5363      5361      5364      5364      5365      5364      5366
      5364      5367      5367      5368      5367      5369      5369      5370
      5369      5371      5371      5372      5371      5373      5371      5374
      5374      5375      5374      5376      5374      5377      5377      5378
      5377      5379      5377      5380      5380      5381      5380      5382
      5380      5383      5383      5384      5383      5385      5383      5386
      5386      5387      5386      5388      5386      5389      5389      5390
      5389      5391      5389      5392      5392      5393      5392      5394
      5392      5395      5343      5344      5344      5346      5344      5345
      5346      5347      5346      5348      5346      5396      5396      5397
      5396      5398      5396      5399      5399      5400      5399      5401
      5399      5402      5402      5403      5402      5404      5402      5405
      5405      5406      5405      5407      5405      5408      5408      5409
      5408      5410      5408      5411      5411      5412      5411      5413
      5411      5414      5414      5415      5414      5416      5414      5417
      5417      5418      5417      5419      5417      5420      5420      5421
      5420      5422      5420      5423      5423      5424      5423      5425
      5423      5426      5426      5427      5426      5428      5426      5429
      5429      5430      5429      5431      5429      5432      5432      5433
      5432      5434      5432      5435      5435      5436      5435      5437
      5435      5438      5439      5443      5439      5447      5439      5451
      5443      5444      5443      5445      5443      5446      5447      5448
      5447      5449      5447      5450      5451      5452      5451      5453
      5451      5454      5439      5440      5440      5441      5440      5442
      5440      5455      5455      5456      5455      5457      5455      5461
      5462      5463      5461      5458      5458      5462      5458      5459
      5458      5460      5463      5464      5463      5465      5463      5466
      5466      5467      5466      5474      5466      5468      5474      5475
      5474      5476      5474      5477      5468      5469      5469      5471
      5469      5470      5471      5472      5471      5473      5471      5483
      5483      5484      5483      5485      5483      5486      5486      5487
      5486      5488      5486      5489      5489      5490      5489      5491
      5489      5492      5492      5493      5492      5494      5492      5495
      5495      5496      5495      5497      5495      5498      5498      5499
      5498      5500      5498      5501      5501      5502      5501      5503
      5503      5504      5503      5505      5505      5506      5505      5507
      5505      5508      5508      5509      5508      5510      5508      5511
      5511      5512      5511      5513      5511      5514      5514      5515
      5514      5516      5514      5517      5517      5518      5517      5519
      5517      5520      5520      5521      5520      5522      5520      5523
      5523      5524      5523      5525      5523      5526      5526      5527
      5526      5528      5526      5529      5477      5478      5478      5480
      5478      5479      5480      5481      5480      5482      5480      5530
      5530      5531      5530      5532      5530      5533      5533      5534
      5533      5535      5533      5536      5536      5537      5536      5538
      5536      5539      5539      5540      5539      5541      5539      5542
      5542      5543      5542      5544      5542      5545      5545      5546
      5545      5547      5545      5548      5548      5549      5548      5550
      5548      5551      5551      5552      5551      5553      5551      5554
      5554      5555      5554      5556      5554      5557      5557      5558
      5557      5559      5557      5560      5560      5561      5560      5562
      5560      5563      5563      5564      5563      5565      5563      5566
      5566      5567      5566      5568      5566      5569      5569      5570
      5569      5571      5569      5572      5573      5577      5573      5581
      5573      5585      5577      5578      5577      5579      5577      5580
      5581      5582      5581      5583      5581      5584      5585      5586
      5585      5587      5585      5588      5573      5574      5574      5575
      5574      5576      5574      5589      5589      5590      5589      5591
      5589      5595      5596      5597      5595      5592      5592      5596
      5592      5593      5592      5594      5597      5598      5597      5599
      5597      5600      5600      5601      5600      5608      5600      5602
      5608      5609      5608      5610      5608      5611      5602      5603
      5603      5605      5603      5604      5605      5606      5605      5607
      5605      5617      5617      5618      5617      5619      5617      5620
      5620      5621      5620      5622      5620      5623      5623      5624
      5623      5625      5623      5626      5626      5627      5626      5628
      5626      5629      5629      5630      5629      5631      5629      5632
      5632      5633      5632      5634      5632      5635      5635      5636
      5635      5637      5637      5638      5637      5639      5639      5640
      5639      5641      5639      5642      5642      5643      5642      5644
      5642      5645      5645      5646      5645      5647      5645      5648
      5648      5649      5648      5650      5648      5651      5651      5652
      5651      5653      5651      5654      5654      5655      5654      5656
      5654      5657      5657      5658      5657      5659      5657      5660
      5660      5661      5660      5662      5660      5663      5611      5612
      5612      5614      5612      5613      5614      5615      5614      5616
      5614      5664      5664      5665      5664      5666      5664      5667
      5667      5668      5667      5669      5667      5670      5670      5671
      5670      5672      5670      5673      5673      5674      5673      5675
      5673      5676      5676      5677      5676      5678      5676      5679
      5679      5680      5679      5681      5679      5682      5682      5683
      5682      5684      5682      5685      5685      5686      5685      5687
      5685      5688      5688      5689      5688      5690      5688      5691
      5691      5692      5691      5693      5691      5694      5694      5695
      5694      5696      5694      5697      5697      5698      5697      5699
      5697      5700      5700      5701      5700      5702      5700      5703
      5703      5704      5703      5705      5703      5706      5707      5711
      5707      5715      5707      5719      5711      5712      5711      5713
      5711      5714      5715      5716      5715      5717      5715      5718
      5719      5720      5719      5721      5719      5722      5707      5708
      5708      5709      5708      5710      5708      5723      5723      5724
      5723      5725      5723      5729      5730      5731      5729      5726
      5726      5730      5726      5727      5726      5728      5731      5732
      5731      5733      5731      5734      5734      5735      5734      5742
      5734      5736      5742      5743      5742      5744      5742      5745
      5736      5737      5737      5739      5737      5738      5739      5740
      5739      5741      5739      5751      5751      5752      5751      5753
      5751      5754      5754      5755      5754      5756      5754      5757
      5757      5758      5757      5759      5757      5760      5760      5761
      5760      5762      5760      5763      5763      5764      5763      5765
      5763      5766      5766      5767      5766      5768      5766      5769
      5769      5770      5769      5771      5771      5772      5771      5773
      5773      5774      5773      5775      5773      5776      5776      5777
      5776      5778      5776      5779      5779      5780      5779      5781
      5779      5782      5782      5783      5782      5784      5782      5785
      5785      5786      5785      5787      5785      5788      5788      5789
      5788      5790      5788      5791      5791      5792      5791      5793
      5791      5794      5794      5795      5794      5796      5794      5797
      5745      5746      5746      5748      5746      5747      5748      5749
      5748      5750      5748      5798      5798      5799      5798      5800
      5798      5801      5801      5802      5801      5803      5801      5804
      5804      5805      5804      5806      5804      5807      5807      5808
      5807      5809      5807      5810      5810      5811      5810      5812
      5810      5813      5813      5814      5813      5815      5813      5816
      5816      5817      5816      5818      5816      5819      5819      5820
      5819      5821      5819      5822      5822      5823      5822      5824
      5822      5825      5825      5826      5825      5827      5825      5828
      5828      5829      5828      5830      5828      5831      5831      5832
      5831      5833      5831      5834      5834      5835      5834      5836
      5834      5837      5837      5838      5837      5839      5837      5840
      5841      5845      5841      5849      5841      5853      5845      5846
      5845      5847      5845      5848      5849      5850      5849      5851
      5849      5852      5853      5854      5853      5855      5853      5856
      5841      5842      5842      5843      5842      5844      5842      5857
      5857      5858      5857      5859      5857      5863      5864      5865
      5863      5860      5860      5864      5860      5861      5860      5862
      5865      5866      5865      5867      5865      5868      5868      5869
      5868      5876      5868      5870      5876      5877      5876      5878
      5876      5879      5870      5871      5871      5873      5871      5872
      5873      5874      5873      5875      5873      5885      5885      5886
      5885      5887      5885      5888      5888      5889      5888      5890
      5888      5891      5891      5892      5891      5893      5891      5894
      5894      5895      5894      5896      5894      5897      5897      5898
      5897      5899      5897      5900      5900      5901      5900      5902
      5900      5903      5903      5904      5903      5905      5905      5906
      5905      5907      5907      5908      5907      5909      5907      5910
      5910      5911      5910      5912      5910      5913      5913      5914
      5913      5915      5913      5916      5916      5917      5916      5918
      5916      5919      5919      5920      5919      5921      5919      5922
      5922      5923      5922      5924      5922      5925      5925      5926
      5925      5927      5925      5928      5928      5929      5928      5930
      5928      5931      5879      5880      5880      5882      5880      5881
      5882      5883      5882      5884      5882      5932      5932      5933
      5932      5934      5932      5935      5935      5936      5935      5937
      5935      5938      5938      5939      5938      5940      5938      5941
      5941      5942      5941      5943      5941      5944      5944      5945
      5944      5946      5944      5947      5947      5948      5947      5949
      5947      5950      5950      5951      5950      5952      5950      5953
      5953      5954      5953      5955      5953      5956      5956      5957
      5956      5958      5956      5959      5959      5960      5959      5961
      5959      5962      5962      5963      5962      5964      5962      5965
      5965      5966      5965      5967      5965      5968      5968      5969
      5968      5970      5968      5971      5971      5972      5971      5973
      5971      5974      5975      5979      5975      5983      5975      5987
      5979      5980      5979      5981      5979      5982      5983      5984
      5983      5985      5983      5986      5987      5988      5987      5989
      5987      5990      5975      5976      5976      5977      5976      5978
      5976      5991      5991      5992      5991      5993      5991      5997
      5998      5999      5997      5994      5994      5998      5994      5995
      5994      5996      5999      6000      5999      6001      5999      6002
      6002      6003      6002      6010      6002      6004      6010      6011
      6010      6012      6010      6013      6004      6005      6005      6007
      6005      6006      6007      6008      6007      6009      6007      6019
      6019      6020      6019      6021      6019      6022      6022      6023
      6022      6024      6022      6025      6025      6026      6025      6027
      6025      6028      6028      6029      6028      6030      6028      6031
      6031      6032      6031      6033      6031      6034      6034      6035
      6034      6036      6034      6037      6037      6038      6037      6039
      6039      6040      6039      6041      6041      6042      6041      6043
      6041      6044      6044      6045      6044      6046      6044      6047
      6047      6048      6047      6049      6047      6050      6050      6051
      6050      6052      6050      6053      6053      6054      6053      6055
      6053      6056      6056      6057      6056      6058      6056      6059
      6059      6060      6059      6061      6059      6062      6062      6063
      6062      6064      6062      6065      6013      6014      6014      6016
      6014      6015      6016      6017      6016      6018      6016      6066
      6066      6067      6066      6068      6066      6069      6069      6070
      6069      6071      6069      6072      6072      6073      6072      6074
      6072      6075      6075      6076      6075      6077      6075      6078
      6078      6079      6078      6080      6078      6081      6081      6082
      6081      6083      6081      6084      6084      6085      6084      6086
      6084      6087      6087      6088      6087      6089      6087      6090
      6090      6091      6090      6092      6090      6093      6093      6094
      6093      6095      6093      6096      6096      6097      6096      6098
      6096      6099      6099      6100      6099      6101      6099      6102
      6102      6103      6102      6104      6102      6105      6105      6106
      6105      6107      6105      6108      6109      6110      6109      6111
      6109      6112      6109      6113      6117      6115      6115      6113
      6115      6116      6113      6114      6113      6118      6126      6125
      6118      6119      6118      6120      6118      6124      6124      6121
      6121      6125      6121      6122      6121      6123      6126      6127
      6126      6128      6126      6129      6129      6130      6129      6137
      6129      6131      6137      6138      6137      6139      6137      6140
      6131      6132      6132      6134      6132      6133      6134      6135
      6134      6136      6134      6146      6146      6147      6146      6148
      6146      6149      6149      6150      6149      6151      6149      6152
      6152      6153      6152      6154      6152      6155      6155      6156
      6155      6157      6155      6158      6158      6159      6158      6160
      6158      6161      6161      6162      6161      6163      6161      6164
      6164      6165      6164      6166      6166      6167      6166      6168
      6168      6169      6168      6170      6168      6171      6171      6172
      6171      6173      6171      6174      6174      6175      6174      6176
      6174      6177      6177      6178      6177      6179      6177      6180
      6180      6181      6180      6182      6180      6183      6183      6184
      6183      6185      6183      6186      6186      6187      6186      6188
      6186      6189      6189      6190      6189      6191      6189      6192
      6140      6141      6141      6143      6141      6142      6143      6144
      6143      6145      6143      6193      6193      6194      6193      6195
      6193      6196      6196      6197      6196      6198      6196      6199
      6199      6200      6199      6201      6199      6202      6202      6203
      6202      6204      6202      6205      6205      6206      6205      6207
      6205      6208      6208      6209      6208      6210      6208      6211
      6211      6212      6211      6213      6211      6214      6214      6215
      6214      6216      6214      6217      6217      6218      6217      6219
      6217      6220      6220      6221      6220      6222      6220      6223
      6223      6224      6223      6225      6223      6226      6226      6227
      6226      6228      6226      6229      6229      6230      6229      6231
      6229      6232      6232      6233      6232      6234      6232      6235
      6236      6240      6236      6244      6236      6248      6240      6241
      6240      6242      6240      6243      6244      6245      6244      6246
      6244      6247      6248      6249      6248      6250      6248      6251
      6236      6237      6237      6238      6237      6239      6237      6252
      6252      6253      6252      6254      6252      6258      6259      6260
      6258      6255      6255      6259      6255      6256      6255      6257
      6260      6261      6260      6262      6260      6263      6263      6264
      6263      6271      6263      6265      6271      6272      6271      6273
      6271      6274      6265      6266      6266      6268      6266      6267
      6268      6269      6268      6270      6268      6280      6280      6281
      6280      6282      6280      6283      6283      6284      6283      6285
      6283      6286      6286      6287      6286      6288      6286      6289
      6289      6290      6289      6291      6289      6292      6292      6293
      6292      6294      6292      6295      6295      6296      6295      6297
      6295      6298      6298      6299      6298      6300      6300      6301
      6300      6302      6302      6303      6302      6304      6302      6305
      6305      6306      6305      6307      6305      6308      6308      6309
      6308      6310      6308      6311      6311      6312      6311      6313
      6311      6314      6314      6315      6314      6316      6314      6317
      6317      6318      6317      6319      6317      6320      6320      6321
      6320      6322      6320      6323      6323      6324      6323      6325
      6323      6326      6274      6275      6275      6277      6275      6276
      6277      6278      6277      6279      6277      6327      6327      6328
      6327      6329      6327      6330      6330      6331      6330      6332
      6330      6333      6333      6334      6333      6335      6333      6336
      6336      6337      6336      6338      6336      6339      6339      6340
      6339      6341      6339      6342      6342      6343      6342      6344
      6342      6345      6345      6346      6345      6347      6345      6348
      6348      6349      6348      6350      6348      6351      6351      6352
      6351      6353      6351      6354      6354      6355      6354      6356
      6354      6357      6357      6358      6357      6359      6357      6360
      6360      6361      6360      6362      6360      6363      6363      6364
      6363      6365      6363      6366      6366      6367      6366      6368
      6366      6369      6370      6374      6370      6378      6370      6382
      6374      6375      6374      6376      6374      6377      6378      6379
      6378      6380      6378      6381      6382      6383      6382      6384
      6382      6385      6370      6371      6371      6372      6371      6373
      6371      6386      6386      6387      6386      6388      6386      6392
      6393      6394      6392      6389      6389      6393      6389      6390
      6389      6391      6394      6395      6394      6396      6394      6397
      6397      6398      6397      6405      6397      6399      6405      6406
      6405      6407      6405      6408      6399      6400      6400      6402
      6400      6401      6402      6403      6402      6404      6402      6414
      6414      6415      6414      6416      6414      6417      6417      6418
      6417      6419      6417      6420      6420      6421      6420      6422
      6420      6423      6423      6424      6423      6425      6423      6426
      6426      6427      6426      6428      6426      6429      6429      6430
      6429      6431      6429      6432      6432      6433      6432      6434
      6434      6435      6434      6436      6436      6437      6436      6438
      6436      6439      6439      6440      6439      6441      6439      6442
      6442      6443      6442      6444      6442      6445      6445      6446
      6445      6447      6445      6448      6448      6449      6448      6450
      6448      6451      6451      6452      6451      6453      6451      6454
      6454      6455      6454      6456      6454      6457      6457      6458
      6457      6459      6457      6460      6408      6409      6409      6411
      6409      6410      6411      6412      6411      6413      6411      6461
      6461      6462      6461      6463      6461      6464      6464      6465
      6464      6466      6464      6467      6467      6468      6467      6469
      6467      6470      6470      6471      6470      6472      6470      6473
      6473      6474      6473      6475      6473      6476      6476      6477
      6476      6478      6476      6479      6479      6480      6479      6481
      6479      6482      6482      6483      6482      6484      6482      6485
      6485      6486      6485      6487      6485      6488      6488      6489
      6488      6490      6488      6491      6491      6492      6491      6493
      6491      6494      6494      6495      6494      6496      6494      6497
      6497      6498      6497      6499      6497      6500      6500      6501
      6500      6502      6500      6503      6504      6505      6504      6506
      6504      6507      6504      6508      6512      6510      6510      6508
      6510      6511      6508      6509      6508      6513      6521      6520
      6513      6514      6513      6515      6513      6519      6519      6516
      6516      6520      6516      6517      6516      6518      6521      6522
      6521      6523      6521      6524      6524      6525      6524      6532
      6524      6526      6532      6533      6532      6534      6532      6535
      6526      6527      6527      6529      6527      6528      6529      6530
      6529      6531      6529      6541      6541      6542      6541      6543
      6541      6544      6544      6545      6544      6546      6544      6547
      6547      6548      6547      6549      6547      6550      6550      6551
      6550      6552      6550      6553      6553      6554      6553      6555
      6553      6556      6556      6557      6556      6558      6556      6559
      6559      6560      6559      6561      6561      6562      6561      6563
      6563      6564      6563      6565      6563      6566      6566      6567
      6566      6568      6566      6569      6569      6570      6569      6571
      6569      6572      6572      6573      6572      6574      6572      6575
      6575      6576      6575      6577      6575      6578      6578      6579
      6578      6580      6578      6581      6581      6582      6581      6583
      6581      6584      6584      6585      6584      6586      6584      6587
      6535      6536      6536      6538      6536      6537      6538      6539
      6538      6540      6538      6588      6588      6589      6588      6590
      6588      6591      6591      6592      6591      6593      6591      6594
      6594      6595      6594      6596      6594      6597      6597      6598
      6597      6599      6597      6600      6600      6601      6600      6602
      6600      6603      6603      6604      6603      6605      6603      6606
      6606      6607      6606      6608      6606      6609      6609      6610
      6609      6611      6609      6612      6612      6613      6612      6614
      6612      6615      6615      6616      6615      6617      6615      6618
      6618      6619      6618      6620      6618      6621      6621      6622
      6621      6623      6621      6624      6624      6625      6624      6626
      6624      6627      6627      6628      6627      6629      6627      6630
      6631      6632      6631      6633      6631      6634      6631      6635
      6639      6637      6637      6635      6637      6638      6635      6636
      6635      6640      6648      6647      6640      6641      6640      6642
      6640      6646      6646      6643      6643      6647      6643      6644
      6643      6645      6648      6649      6648      6650      6648      6651
      6651      6652      6651      6659      6651      6653      6659      6660
      6659      6661      6659      6662      6653      6654      6654      6656
      6654      6655      6656      6657      6656      6658      6656      6668
      6668      6669      6668      6670      6668      6671      6671      6672
      6671      6673      6671      6674      6674      6675      6674      6676
      6674      6677      6677      6678      6677      6679      6677      6680
      6680      6681      6680      6682      6680      6683      6683      6684
      6683      6685      6683      6686      6686      6687      6686      6688
      6688      6689      6688      6690      6690      6691      6690      6692
      6690      6693      6693      6694      6693      6695      6693      6696
      6696      6697      6696      6698      6696      6699      6699      6700
      6699      6701      6699      6702      6702      6703      6702      6704
      6702      6705      6705      6706      6705      6707      6705      6708
      6708      6709      6708      6710      6708      6711      6711      6712
      6711      6713      6711      6714      6662      6663      6663      6665
      6663      6664      6665      6666      6665      6667      6665      6715
      6715      6716      6715      6717      6715      6718      6718      6719
      6718      6720      6718      6721      6721      6722      6721      6723
      6721      6724      6724      6725      6724      6726      6724      6727
      6727      6728      6727      6729      6727      6730      6730      6731
      6730      6732      6730      6733      6733      6734      6733      6735
      6733      6736      6736      6737      6736      6738      6736      6739
      6739      6740      6739      6741      6739      6742      6742      6743
      6742      6744      6742      6745      6745      6746      6745      6747
      6745      6748      6748      6749      6748      6750      6748      6751
      6751      6752      6751      6753      6751      6754      6754      6755
      6754      6756      6754      6757      6758      6762      6758      6766
      6758      6770      6762      6763      6762      6764      6762      6765
      6766      6767      6766      6768      6766      6769      6770      6771
      6770      6772      6770      6773      6758      6759      6759      6760
      6759      6761      6759      6774      6774      6775      6774      6776
      6774      6780      6781      6782      6780      6777      6777      6781
      6777      6778      6777      6779      6782      6783      6782      6784
      6782      6785      6785      6786      6785      6793      6785      6787
      6793      6794      6793      6795      6793      6796      6787      6788
      6788      6790      6788      6789      6790      6791      6790      6792
      6790      6802      6802      6803      6802      6804      6802      6805
      6805      6806      6805      6807      6805      6808      6808      6809
      6808      6810      6808      6811      6811      6812      6811      6813
      6811      6814      6814      6815      6814      6816      6814      6817
      6817      6818      6817      6819      6817      6820      6820      6821
      6820      6822      6822      6823      6822      6824      6824      6825
      6824      6826      6824      6827      6827      6828      6827      6829
      6827      6830      6830      6831      6830      6832      6830      6833
      6833      6834      6833      6835      6833      6836      6836      6837
      6836      6838      6836      6839      6839      6840      6839      6841
      6839      6842      6842      6843      6842      6844      6842      6845
      6845      6846      6845      6847      6845      6848      6796      6797
      6797      6799      6797      6798      6799      6800      6799      6801
      6799      6849      6849      6850      6849      6851      6849      6852
      6852      6853      6852      6854      6852      6855      6855      6856
      6855      6857      6855      6858      6858      6859      6858      6860
      6858      6861      6861      6862      6861      6863      6861      6864
      6864      6865      6864      6866      6864      6867      6867      6868
      6867      6869      6867      6870      6870      6871      6870      6872
      6870      6873      6873      6874      6873      6875      6873      6876
      6876      6877      6876      6878      6876      6879      6879      6880
      6879      6881      6879      6882      6882      6883      6882      6884
      6882      6885      6885      6886      6885      6887      6885      6888
      6888      6889      6888      6890      6888      6891      6892      6896
      6892      6900      6892      6904      6896      6897      6896      6898
      6896      6899      6900      6901      6900      6902      6900      6903
      6904      6905      6904      6906      6904      6907      6892      6893
      6893      6894      6893      6895      6893      6908      6908      6909
      6908      6910      6908      6914      6915      6916      6914      6911
      6911      6915      6911      6912      6911      6913      6916      6917
      6916      6918      6916      6919      6919      6920      6919      6927
      6919      6921      6927      6928      6927      6929      6927      6930
      6921      6922      6922      6924      6922      6923      6924      6925
      6924      6926      6924      6936      6936      6937      6936      6938
      6936      6939      6939      6940      6939      6941      6939      6942
      6942      6943      6942      6944      6942      6945      6945      6946
      6945      6947      6945      6948      6948      6949      6948      6950
      6948      6951      6951      6952      6951      6953      6951      6954
      6954      6955      6954      6956      6956      6957      6956      6958
      6958      6959      6958      6960      6958      6961      6961      6962
      6961      6963      6961      6964      6964      6965      6964      6966
      6964      6967      6967      6968      6967      6969      6967      6970
      6970      6971      6970      6972      6970      6973      6973      6974
      6973      6975      6973      6976      6976      6977      6976      6978
      6976      6979      6979      6980      6979      6981      6979      6982
      6930      6931      6931      6933      6931      6932      6933      6934
      6933      6935      6933      6983      6983      6984      6983      6985
      6983      6986      6986      6987      6986      6988      6986      6989
      6989      6990      6989      6991      6989      6992      6992      6993
      6992      6994      6992      6995      6995      6996      6995      6997
      6995      6998      6998      6999      6998      7000      6998      7001
      7001      7002      7001      7003      7001      7004      7004      7005
      7004      7006      7004      7007      7007      7008      7007      7009
      7007      7010      7010      7011      7010      7012      7010      7013
      7013      7014      7013      7015      7013      7016      7016      7017
      7016      7018      7016      7019      7019      7020      7019      7021
      7019      7022      7022      7023      7022      7024      7022      7025
      7026      7027      7026      7028      7026      7029      7026      7030
      7034      7032      7032      7030      7032      7033      7030      7031
      7030      7035      7043      7042      7035      7036      7035      7037
      7035      7041      7041      7038      7038      7042      7038      7039
      7038      7040      7043      7044      7043      7045      7043      7046
      7046      7047      7046      7054      7046      7048      7054      7055
      7054      7056      7054      7057      7048      7049      7049      7051
      7049      7050      7051      7052      7051      7053      7051      7063
      7063      7064      7063      7065      7063      7066      7066      7067
      7066      7068      7066      7069      7069      7070      7069      7071
      7069      7072      7072      7073      7072      7074      7072      7075
      7075      7076      7075      7077      7075      7078      7078      7079
      7078      7080      7078      7081      7081      7082      7081      7083
      7083      7084      7083      7085      7085      7086      7085      7087
      7085      7088      7088      7089      7088      7090      7088      7091
      7091      7092      7091      7093      7091      7094      7094      7095
      7094      7096      7094      7097      7097      7098      7097      7099
      7097      7100      7100      7101      7100      7102      7100      7103
      7103      7104      7103      7105      7103      7106      7106      7107
      7106      7108      7106      7109      7057      7058      7058      7060
      7058      7059      7060      7061      7060      7062      7060      7110
      7110      7111      7110      7112      7110      7113      7113      7114
      7113      7115      7113      7116      7116      7117      7116      7118
      7116      7119      7119      7120      7119      7121      7119      7122
      7122      7123      7122      7124      7122      7125      7125      7126
      7125      7127      7125      7128      7128      7129      7128      7130
      7128      7131      7131      7132      7131      7133      7131      7134
      7134      7135      7134      7136      7134      7137      7137      7138
      7137      7139      7137      7140      7140      7141      7140      7142
      7140      7143      7143      7144      7143      7145      7143      7146
      7146      7147      7146      7148      7146      7149      7149      7150
      7149      7151      7149      7152      7153      7157      7153      7161
      7153      7165      7157      7158      7157      7159      7157      7160
      7161      7162      7161      7163      7161      7164      7165      7166
      7165      7167      7165      7168      7153      7154      7154      7155
      7154      7156      7154      7169      7169      7170      7169      7171
      7169      7175      7176      7177      7175      7172      7172      7176
      7172      7173      7172      7174      7177      7178      7177      7179
      7177      7180      7180      7181      7180      7188      7180      7182
      7188      7189      7188      7190      7188      7191      7182      7183
      7183      7185      7183      7184      7185      7186      7185      7187
      7185      7197      7197      7198      7197      7199      7197      7200
      7200      7201      7200      7202      7200      7203      7203      7204
      7203      7205      7203      7206      7206      7207      7206      7208
      7206      7209      7209      7210      7209      7211      7209      7212
      7212      7213      7212      7214      7212      7215      7215      7216
      7215      7217      7217      7218      7217      7219      7219      7220
      7219      7221      7219      7222      7222      7223      7222      7224
      7222      7225      7225      7226      7225      7227      7225      7228
      7228      7229      7228      7230      7228      7231      7231      7232
      7231      7233      7231      7234      7234      7235      7234      7236
      7234      7237      7237      7238      7237      7239      7237      7240
      7240      7241      7240      7242      7240      7243      7191      7192
      7192      7194      7192      7193      7194      7195      7194      7196
      7194      7244      7244      7245      7244      7246      7244      7247
      7247      7248      7247      7249      7247      7250      7250      7251
      7250      7252      7250      7253      7253      7254      7253      7255
      7253      7256      7256      7257      7256      7258      7256      7259
      7259      7260      7259      7261      7259      7262      7262      7263
      7262      7264      7262      7265      7265      7266      7265      7267
      7265      7268      7268      7269      7268      7270      7268      7271
      7271      7272      7271      7273      7271      7274      7274      7275
      7274      7276      7274      7277      7277      7278      7277      7279
      7277      7280      7280      7281      7280      7282      7280      7283
      7283      7284      7283      7285      7283      7286      7287      7291
      7287      7295      7287      7299      7291      7292      7291      7293
      7291      7294      7295      7296      7295      7297      7295      7298
      7299      7300      7299      7301      7299      7302      7287      7288
      7288      7289      7288      7290      7288      7303      7303      7304
      7303      7305      7303      7309      7310      7311      7309      7306
      7306      7310      7306      7307      7306      7308      7311      7312
      7311      7313      7311      7314      7314      7315      7314      7322
      7314      7316      7322      7323      7322      7324      7322      7325
      7316      7317      7317      7319      7317      7318      7319      7320
      7319      7321      7319      7331      7331      7332      7331      7333
      7331      7334      7334      7335      7334      7336      7334      7337
      7337      7338      7337      7339      7337      7340      7340      7341
      7340      7342      7340      7343      7343      7344      7343      7345
      7343      7346      7346      7347      7346      7348      7346      7349
      7349      7350      7349      7351      7351      7352      7351      7353
      7353      7354      7353      7355      7353      7356      7356      7357
      7356      7358      7356      7359      7359      7360      7359      7361
      7359      7362      7362      7363      7362      7364      7362      7365
      7365      7366      7365      7367      7365      7368      7368      7369
      7368      7370      7368      7371      7371      7372      7371      7373
      7371      7374      7374      7375      7374      7376      7374      7377
      7325      7326      7326      7328      7326      7327      7328      7329
      7328      7330      7328      7378      7378      7379      7378      7380
      7378      7381      7381      7382      7381      7383      7381      7384
      7384      7385      7384      7386      7384      7387      7387      7388
      7387      7389      7387      7390      7390      7391      7390      7392
      7390      7393      7393      7394      7393      7395      7393      7396
      7396      7397      7396      7398      7396      7399      7399      7400
      7399      7401      7399      7402      7402      7403      7402      7404
      7402      7405      7405      7406      7405      7407      7405      7408
      7408      7409      7408      7410      7408      7411      7411      7412
      7411      7413      7411      7414      7414      7415      7414      7416
      7414      7417      7417      7418      7417      7419      7417      7420
      7421      7422      7421      7423      7421      7424      7421      7425
      7429      7427      7427      7425      7427      7428      7425      7426
      7425      7430      7438      7437      7430      7431      7430      7432
      7430      7436      7436      7433      7433      7437      7433      7434
      7433      7435      7438      7439      7438      7440      7438      7441
      7441      7442      7441      7449      7441      7443      7449      7450
      7449      7451      7449      7452      7443      7444      7444      7446
      7444      7445      7446      7447      7446      7448      7446      7458
      7458      7459      7458      7460      7458      7461      7461      7462
      7461      7463      7461      7464      7464      7465      7464      7466
      7464      7467      7467      7468      7467      7469      7467      7470
      7470      7471      7470      7472      7470      7473      7473      7474
      7473      7475      7473      7476      7476      7477      7476      7478
      7478      7479      7478      7480      7480      7481      7480      7482
      7480      7483      7483      7484      7483      7485      7483      7486
      7486      7487      7486      7488      7486      7489      7489      7490
      7489      7491      7489      7492      7492      7493      7492      7494
      7492      7495      7495      7496      7495      7497      7495      7498
      7498      7499      7498      7500      7498      7501      7501      7502
      7501      7503      7501      7504      7452      7453      7453      7455
      7453      7454      7455      7456      7455      7457      7455      7505
      7505      7506      7505      7507      7505      7508      7508      7509
      7508      7510      7508      7511      7511      7512      7511      7513
      7511      7514      7514      7515      7514      7516      7514      7517
      7517      7518      7517      7519      7517      7520      7520      7521
      7520      7522      7520      7523      7523      7524      7523      7525
      7523      7526      7526      7527      7526      7528      7526      7529
      7529      7530      7529      7531      7529      7532      7532      7533
      7532      7534      7532      7535      7535      7536      7535      7537
      7535      7538      7538      7539      7538      7540      7538      7541
      7541      7542      7541      7543      7541      7544      7544      7545
      7544      7546      7544      7547      7548      7552      7548      7556
      7548      7560      7552      7553      7552      7554      7552      7555
      7556      7557      7556      7558      7556      7559      7560      7561
      7560      7562      7560      7563      7548      7549      7549      7550
      7549      7551      7549      7564      7564      7565      7564      7566
      7564      7570      7571      7572      7570      7567      7567      7571
      7567      7568      7567      7569      7572      7573      7572      7574
      7572      7575      7575      7576      7575      7583      7575      7577
      7583      7584      7583      7585      7583      7586      7577      7578
      7578      7580      7578      7579      7580      7581      7580      7582
      7580      7592      7592      7593      7592      7594      7592      7595
      7595      7596      7595      7597      7595      7598      7598      7599
      7598      7600      7598      7601      7601      7602      7601      7603
      7601      7604      7604      7605      7604      7606      7604      7607
      7607      7608      7607      7609      7607      7610      7610      7611
      7610      7612      7612      7613      7612      7614      7614      7615
      7614      7616      7614      7617      7617      7618      7617      7619
      7617      7620      7620      7621      7620      7622      7620      7623
      7623      7624      7623      7625      7623      7626      7626      7627
      7626      7628      7626      7629      7629      7630      7629      7631
      7629      7632      7632      7633      7632      7634      7632      7635
      7635      7636      7635      7637      7635      7638      7586      7587
      7587      7589      7587      7588      7589      7590      7589      7591
      7589      7639      7639      7640      7639      7641      7639      7642
      7642      7643      7642      7644      7642      7645      7645      7646
      7645      7647      7645      7648      7648      7649      7648      7650
      7648      7651      7651      7652      7651      7653      7651      7654
      7654      7655      7654      7656      7654      7657      7657      7658
      7657      7659      7657      7660      7660      7661      7660      7662
      7660      7663      7663      7664      7663      7665      7663      7666
      7666      7667      7666      7668      7666      7669      7669      7670
      7669      7671      7669      7672      7672      7673      7672      7674
      7672      7675      7675      7676      7675      7677      7675      7678
      7678      7679      7678      7680      7678      7681      7682      7686
      7682      7690      7682      7694      7686      7687      7686      7688
      7686      7689      7690      7691      7690      7692      7690      7693
      7694      7695      7694      7696      7694      7697      7682      7683
      7683      7684      7683      7685      7683      7698      7698      7699
      7698      7700      7698      7704      7705      7706      7704      7701
      7701      7705      7701      7702      7701      7703      7706      7707
      7706      7708      7706      7709      7709      7710      7709      7717
      7709      7711      7717      7718      7717      7719      7717      7720
      7711      7712      7712      7714      7712      7713      7714      7715
      7714      7716      7714      7726      7726      7727      7726      7728
      7726      7729      7729      7730      7729      7731      7729      7732
      7732      7733      7732      7734      7732      7735      7735      7736
      7735      7737      7735      7738      7738      7739      7738      7740
      7738      7741      7741      7742      7741      7743      7741      7744
      7744      7745      7744      7746      7746      7747      7746      7748
      7748      7749      7748      7750      7748      7751      7751      7752
      7751      7753      7751      7754      7754      7755      7754      7756
      7754      7757      7757      7758      7757      7759      7757      7760
      7760      7761      7760      7762      7760      7763      7763      7764
      7763      7765      7763      7766      7766      7767      7766      7768
      7766      7769      7769      7770      7769      7771      7769      7772
      7720      7721      7721      7723      7721      7722      7723      7724
      7723      7725      7723      7773      7773      7774      7773      7775
      7773      7776      7776      7777      7776      7778      7776      7779
      7779      7780      7779      7781      7779      7782      7782      7783
      7782      7784      7782      7785      7785      7786      7785      7787
      7785      7788      7788      7789      7788      7790      7788      7791
      7791      7792      7791      7793      7791      7794      7794      7795
      7794      7796      7794      7797      7797      7798      7797      7799
      7797      7800      7800      7801      7800      7802      7800      7803
      7803      7804      7803      7805      7803      7806      7806      7807
      7806      7808      7806      7809      7809      7810      7809      7811
      7809      7812      7812      7813      7812      7814      7812      7815
      7816      7820      7816      7824      7816      7828      7820      7821
      7820      7822      7820      7823      7824      7825      7824      7826
      7824      7827      7828      7829      7828      7830      7828      7831
      7816      7817      7817      7818      7817      7819      7817      7832
      7832      7833      7832      7834      7832      7838      7839      7840
      7838      7835      7835      7839      7835      7836      7835      7837
      7840      7841      7840      7842      7840      7843      7843      7844
      7843      7851      7843      7845      7851      7852      7851      7853
      7851      7854      7845      7846      7846      7848      7846      7847
      7848      7849      7848      7850      7848      7860      7860      7861
      7860      7862      7860      7863      7863      7864      7863      7865
      7863      7866      7866      7867      7866      7868      7866      7869
      7869      7870      7869      7871      7869      7872      7872      7873
      7872      7874      7872      7875      7875      7876      7875      7877
      7875      7878      7878      7879      7878      7880      7880      7881
      7880      7882      7882      7883      7882      7884      7882      7885
      7885      7886      7885      7887      7885      7888      7888      7889
      7888      7890      7888      7891      7891      7892      7891      7893
      7891      7894      7894      7895      7894      7896      7894      7897
      7897      7898      7897      7899      7897      7900      7900      7901
      7900      7902      7900      7903      7903      7904      7903      7905
      7903      7906      7854      7855      7855      7857      7855      7856
      7857      7858      7857      7859      7857      7907      7907      7908
      7907      7909      7907      7910      7910      7911      7910      7912
      7910      7913      7913      7914      7913      7915      7913      7916
      7916      7917      7916      7918      7916      7919      7919      7920
      7919      7921      7919      7922      7922      7923      7922      7924
      7922      7925      7925      7926      7925      7927      7925      7928
      7928      7929      7928      7930      7928      7931      7931      7932
      7931      7933      7931      7934      7934      7935      7934      7936
      7934      7937      7937      7938      7937      7939      7937      7940
      7940      7941      7940      7942      7940      7943      7943      7944
      7943      7945      7943      7946      7946      7947      7946      7948
      7946      7949      7950      7954      7950      7958      7950      7962
      7954      7955      7954      7956      7954      7957      7958      7959
      7958      7960      7958      7961      7962      7963      7962      7964
      7962      7965      7950      7951      7951      7952      7951      7953
      7951      7966      7966      7967      7966      7968      7966      7972
      7973      7974      7972      7969      7969      7973      7969      7970
      7969      7971      7974      7975      7974      7976      7974      7977
      7977      7978      7977      7985      7977      7979      7985      7986
      7985      7987      7985      7988      7979      7980      7980      7982
      7980      7981      7982      7983      7982      7984      7982      7994
      7994      7995      7994      7996      7994      7997      7997      7998
      7997      7999      7997      8000      8000      8001      8000      8002
      8000      8003      8003      8004      8003      8005      8003      8006
      8006      8007      8006      8008      8006      8009      8009      8010
      8009      8011      8009      8012      8012      8013      8012      8014
      8014      8015      8014      8016      8016      8017      8016      8018
      8016      8019      8019      8020      8019      8021      8019      8022
      8022      8023      8022      8024      8022      8025      8025      8026
      8025      8027      8025      8028      8028      8029      8028      8030
      8028      8031      8031      8032      8031      8033      8031      8034
      8034      8035      8034      8036      8034      8037      8037      8038
      8037      8039      8037      8040      7988      7989      7989      7991
      7989      7990      7991      7992      7991      7993      7991      8041
      8041      8042      8041      8043      8041      8044      8044      8045
      8044      8046      8044      8047      8047      8048      8047      8049
      8047      8050      8050      8051      8050      8052      8050      8053
      8053      8054      8053      8055      8053      8056      8056      8057
      8056      8058      8056      8059      8059      8060      8059      8061
      8059      8062      8062      8063      8062      8064      8062      8065
      8065      8066      8065      8067      8065      8068      8068      8069
      8068      8070      8068      8071      8071      8072      8071      8073
      8071      8074      8074      8075      8074      8076      8074      8077
      8077      8078      8077      8079      8077      8080      8080      8081
      8080      8082      8080      8083      8084      8088      8084      8092
      8084      8096      8088      8089      8088      8090      8088      8091
      8092      8093      8092      8094      8092      8095      8096      8097
      8096      8098      8096      8099      8084      8085      8085      8086
      8085      8087      8085      8100      8100      8101      8100      8102
      8100      8106      8107      8108      8106      8103      8103      8107
      8103      8104      8103      8105      8108      8109      8108      8110
      8108      8111      8111      8112      8111      8119      8111      8113
      8119      8120      8119      8121      8119      8122      8113      8114
      8114      8116      8114      8115      8116      8117      8116      8118
      8116      8128      8128      8129      8128      8130      8128      8131
      8131      8132      8131      8133      8131      8134      8134      8135
      8134      8136      8134      8137      8137      8138      8137      8139
      8137      8140      8140      8141      8140      8142      8140      8143
      8143      8144      8143      8145      8143      8146      8146      8147
      8146      8148      8148      8149      8148      8150      8150      8151
      8150      8152      8150      8153      8153      8154      8153      8155
      8153      8156      8156      8157      8156      8158      8156      8159
      8159      8160      8159      8161      8159      8162      8162      8163
      8162      8164      8162      8165      8165      8166      8165      8167
      8165      8168      8168      8169      8168      8170      8168      8171
      8171      8172      8171      8173      8171      8174      8122      8123
      8123      8125      8123      8124      8125      8126      8125      8127
      8125      8175      8175      8176      8175      8177      8175      8178
      8178      8179      8178      8180      8178      8181      8181      8182
      8181      8183      8181      8184      8184      8185      8184      8186
      8184      8187      8187      8188      8187      8189      8187      8190
      8190      8191      8190      8192      8190      8193      8193      8194
      8193      8195      8193      8196      8196      8197      8196      8198
      8196      8199      8199      8200      8199      8201      8199      8202
      8202      8203      8202      8204      8202      8205      8205      8206
      8205      8207      8205      8208      8208      8209      8208      8210
      8208      8211      8211      8212      8211      8213      8211      8214
      8214      8215      8214      8216      8214      8217      8218      8222
      8218      8226      8218      8230      8222      8223      8222      8224
      8222      8225      8226      8227      8226      8228      8226      8229
      8230      8231      8230      8232      8230      8233      8218      8219
      8219      8220      8219      8221      8219      8234      8234      8235
      8234      8236      8234      8240      8241      8242      8240      8237
      8237      8241      8237      8238      8237      8239      8242      8243
      8242      8244      8242      8245      8245      8246      8245      8253
      8245      8247      8253      8254      8253      8255      8253      8256
      8247      8248      8248      8250      8248      8249      8250      8251
      8250      8252      8250      8262      8262      8263      8262      8264
      8262      8265      8265      8266      8265      8267      8265      8268
      8268      8269      8268      8270      8268      8271      8271      8272
      8271      8273      8271      8274      8274      8275      8274      8276
      8274      8277      8277      8278      8277      8279      8277      8280
      8280      8281      8280      8282      8282      8283      8282      8284
      8284      8285      8284      8286      8284      8287      8287      8288
      8287      8289      8287      8290      8290      8291      8290      8292
      8290      8293      8293      8294      8293      8295      8293      8296
      8296      8297      8296      8298      8296      8299      8299      8300
      8299      8301      8299      8302      8302      8303      8302      8304
      8302      8305      8305      8306      8305      8307      8305      8308
      8256      8257      8257      8259      8257      8258      8259      8260
      8259      8261      8259      8309      8309      8310      8309      8311
      8309      8312      8312      8313      8312      8314      8312      8315
      8315      8316      8315      8317      8315      8318      8318      8319
      8318      8320      8318      8321      8321      8322      8321      8323
      8321      8324      8324      8325      8324      8326      8324      8327
      8327      8328      8327      8329      8327      8330      8330      8331
      8330      8332      8330      8333      8333      8334      8333      8335
      8333      8336      8336      8337      8336      8338      8336      8339
      8339      8340      8339      8341      8339      8342      8342      8343
      8342      8344      8342      8345      8345      8346      8345      8347
      8345      8348      8348      8349      8348      8350      8348      8351
      8352      8356      8352      8360      8352      8364      8356      8357
      8356      8358      8356      8359      8360      8361      8360      8362
      8360      8363      8364      8365      8364      8366      8364      8367
      8352      8353      8353      8354      8353      8355      8353      8368
      8368      8369      8368      8370      8368      8374      8375      8376
      8374      8371      8371      8375      8371      8372      8371      8373
      8376      8377      8376      8378      8376      8379      8379      8380
      8379      8387      8379      8381      8387      8388      8387      8389
      8387      8390      8381      8382      8382      8384      8382      8383
      8384      8385      8384      8386      8384      8396      8396      8397
      8396      8398      8396      8399      8399      8400      8399      8401
      8399      8402      8402      8403      8402      8404      8402      8405
      8405      8406      8405      8407      8405      8408      8408      8409
      8408      8410      8408      8411      8411      8412      8411      8413
      8411      8414      8414      8415      8414      8416      8416      8417
      8416      8418      8418      8419      8418      8420      8418      8421
      8421      8422      8421      8423      8421      8424      8424      8425
      8424      8426      8424      8427      8427      8428      8427      8429
      8427      8430      8430      8431      8430      8432      8430      8433
      8433      8434      8433      8435      8433      8436      8436      8437
      8436      8438      8436      8439      8439      8440      8439      8441
      8439      8442      8390      8391      8391      8393      8391      8392
      8393      8394      8393      8395      8393      8443      8443      8444
      8443      8445      8443      8446      8446      8447      8446      8448
      8446      8449      8449      8450      8449      8451      8449      8452
      8452      8453      8452      8454      8452      8455      8455      8456
      8455      8457      8455      8458      8458      8459      8458      8460
      8458      8461      8461      8462      8461      8463      8461      8464
      8464      8465      8464      8466      8464      8467      8467      8468
      8467      8469      8467      8470      8470      8471      8470      8472
      8470      8473      8473      8474      8473      8475      8473      8476
      8476      8477      8476      8478      8476      8479      8479      8480
      8479      8481      8479      8482      8482      8483      8482      8484
      8482      8485      8486      8490      8486      8494      8486      8498
      8490      8491      8490      8492      8490      8493      8494      8495
      8494      8496      8494      8497      8498      8499      8498      8500
      8498      8501      8486      8487      8487      8488      8487      8489
      8487      8502      8502      8503      8502      8504      8502      8508
      8509      8510      8508      8505      8505      8509      8505      8506
      8505      8507      8510      8511      8510      8512      8510      8513
      8513      8514      8513      8521      8513      8515      8521      8522
      8521      8523      8521      8524      8515      8516      8516      8518
      8516      8517      8518      8519      8518      8520      8518      8530
      8530      8531      8530      8532      8530      8533      8533      8534
      8533      8535      8533      8536      8536      8537      8536      8538
      8536      8539      8539      8540      8539      8541      8539      8542
      8542      8543      8542      8544      8542      8545      8545      8546
      8545      8547      8545      8548      8548      8549      8548      8550
      8550      8551      8550      8552      8552      8553      8552      8554
      8552      8555      8555      8556      8555      8557      8555      8558
      8558      8559      8558      8560      8558      8561      8561      8562
      8561      8563      8561      8564      8564      8565      8564      8566
      8564      8567      8567      8568      8567      8569      8567      8570
      8570      8571      8570      8572      8570      8573      8573      8574
      8573      8575      8573      8576      8524      8525      8525      8527
      8525      8526      8527      8528      8527      8529      8527      8577
      8577      8578      8577      8579      8577      8580      8580      8581
      8580      8582      8580      8583      8583      8584      8583      8585
      8583      8586      8586      8587      8586      8588      8586      8589
      8589      8590      8589      8591      8589      8592      8592      8593
      8592      8594      8592      8595      8595      8596      8595      8597
      8595      8598      8598      8599      8598      8600      8598      8601
      8601      8602      8601      8603      8601      8604      8604      8605
      8604      8606      8604      8607      8607      8608      8607      8609
      8607      8610      8610      8611      8610      8612      8610      8613
      8613      8614      8613      8615      8613      8616      8616      8617
      8616      8618      8616      8619      8620      8621      8620      8622
      8620      8623      8620      8624      8628      8626      8626      8624
      8626      8627      8624      8625      8624      8629      8637      8636
      8629      8630      8629      8631      8629      8635      8635      8632
      8632      8636      8632      8633      8632      8634      8637      8638
      8637      8639      8637      8640      8640      8641      8640      8648
      8640      8642      8648      8649      8648      8650      8648      8651
      8642      8643      8643      8645      8643      8644      8645      8646
      8645      8647      8645      8657      8657      8658      8657      8659
      8657      8660      8660      8661      8660      8662      8660      8663
      8663      8664      8663      8665      8663      8666      8666      8667
      8666      8668      8666      8669      8669      8670      8669      8671
      8669      8672      8672      8673      8672      8674      8672      8675
      8675      8676      8675      8677      8677      8678      8677      8679
      8679      8680      8679      8681      8679      8682      8682      8683
      8682      8684      8682      8685      8685      8686      8685      8687
      8685      8688      8688      8689      8688      8690      8688      8691
      8691      8692      8691      8693      8691      8694      8694      8695
      8694      8696      8694      8697      8697      8698      8697      8699
      8697      8700      8700      8701      8700      8702      8700      8703
      8651      8652      8652      8654      8652      8653      8654      8655
      8654      8656      8654      8704      8704      8705      8704      8706
      8704      8707      8707      8708      8707      8709      8707      8710
      8710      8711      8710      8712      8710      8713      8713      8714
      8713      8715      8713      8716      8716      8717      8716      8718
      8716      8719      8719      8720      8719      8721      8719      8722
      8722      8723      8722      8724      8722      8725      8725      8726
      8725      8727      8725      8728      8728      8729      8728      8730
      8728      8731      8731      8732      8731      8733      8731      8734
      8734      8735      8734      8736      8734      8737      8737      8738
      8737      8739      8737      8740      8740      8741      8740      8742
      8740      8743      8743      8744      8743      8745      8743      8746
      8747      8751      8747      8755      8747      8759      8751      8752
      8751      8753      8751      8754      8755      8756      8755      8757
      8755      8758      8759      8760      8759      8761      8759      8762
      8747      8748      8748      8749      8748      8750      8748      8763
      8763      8764      8763      8765      8763      8769      8770      8771
      8769      8766      8766      8770      8766      8767      8766      8768
      8771      8772      8771      8773      8771      8774      8774      8775
      8774      8782      8774      8776      8782      8783      8782      8784
      8782      8785      8776      8777      8777      8779      8777      8778
      8779      8780      8779      8781      8779      8791      8791      8792
      8791      8793      8791      8794      8794      8795      8794      8796
      8794      8797      8797      8798      8797      8799      8797      8800
      8800      8801      8800      8802      8800      8803      8803      8804
      8803      8805      8803      8806      8806      8807      8806      8808
      8806      8809      8809      8810      8809      8811      8811      8812
      8811      8813      8813      8814      8813      8815      8813      8816
      8816      8817      8816      8818      8816      8819      8819      8820
      8819      8821      8819      8822      8822      8823      8822      8824
      8822      8825      8825      8826      8825      8827      8825      8828
      8828      8829      8828      8830      8828      8831      8831      8832
      8831      8833      8831      8834      8834      8835      8834      8836
      8834      8837      8785      8786      8786      8788      8786      8787
      8788      8789      8788      8790      8788      8838      8838      8839
      8838      8840      8838      8841      8841      8842      8841      8843
      8841      8844      8844      8845      8844      8846      8844      8847
      8847      8848      8847      8849      8847      8850      8850      8851
      8850      8852      8850      8853      8853      8854      8853      8855
      8853      8856      8856      8857      8856      8858      8856      8859
      8859      8860      8859      8861      8859      8862      8862      8863
      8862      8864      8862      8865      8865      8866      8865      8867
      8865      8868      8868      8869      8868      8870      8868      8871
      8871      8872      8871      8873      8871      8874      8874      8875
      8874      8876      8874      8877      8877      8878      8877      8879
      8877      8880      8881      8885      8881      8889      8881      8893
      8885      8886      8885      8887      8885      8888      8889      8890
      8889      8891      8889      8892      8893      8894      8893      8895
      8893      8896      8881      8882      8882      8883      8882      8884
      8882      8897      8897      8898      8897      8899      8897      8903
      8904      8905      8903      8900      8900      8904      8900      8901
      8900      8902      8905      8906      8905      8907      8905      8908
      8908      8909      8908      8916      8908      8910      8916      8917
      8916      8918      8916      8919      8910      8911      8911      8913
      8911      8912      8913      8914      8913      8915      8913      8925
      8925      8926      8925      8927      8925      8928      8928      8929
      8928      8930      8928      8931      8931      8932      8931      8933
      8931      8934      8934      8935      8934      8936      8934      8937
      8937      8938      8937      8939      8937      8940      8940      8941
      8940      8942      8940      8943      8943      8944      8943      8945
      8945      8946      8945      8947      8947      8948      8947      8949
      8947      8950      8950      8951      8950      8952      8950      8953
      8953      8954      8953      8955      8953      8956      8956      8957
      8956      8958      8956      8959      8959      8960      8959      8961
      8959      8962      8962      8963      8962      8964      8962      8965
      8965      8966      8965      8967      8965      8968      8968      8969
      8968      8970      8968      8971      8919      8920      8920      8922
      8920      8921      8922      8923      8922      8924      8922      8972
      8972      8973      8972      8974      8972      8975      8975      8976
      8975      8977      8975      8978      8978      8979      8978      8980
      8978      8981      8981      8982      8981      8983      8981      8984
      8984      8985      8984      8986      8984      8987      8987      8988
      8987      8989      8987      8990      8990      8991      8990      8992
      8990      8993      8993      8994      8993      8995      8993      8996
      8996      8997      8996      8998      8996      8999      8999      9000
      8999      9001      8999      9002      9002      9003      9002      9004
      9002      9005      9005      9006      9005      9007      9005      9008
      9008      9009      9008      9010      9008      9011      9011      9012
      9011      9013      9011      9014      9015      9019      9015      9023
      9015      9027      9019      9020      9019      9021      9019      9022
      9023      9024      9023      9025      9023      9026      9027      9028
      9027      9029      9027      9030      9015      9016      9016      9017
      9016      9018      9016      9031      9031      9032      9031      9033
      9031      9037      9038      9039      9037      9034      9034      9038
      9034      9035      9034      9036      9039      9040      9039      9041
      9039      9042      9042      9043      9042      9050      9042      9044
      9050      9051      9050      9052      9050      9053      9044      9045
      9045      9047      9045      9046      9047      9048      9047      9049
      9047      9059      9059      9060      9059      9061      9059      9062
      9062      9063      9062      9064      9062      9065      9065      9066
      9065      9067      9065      9068      9068      9069      9068      9070
      9068      9071      9071      9072      9071      9073      9071      9074
      9074      9075      9074      9076      9074      9077      9077      9078
      9077      9079      9079      9080      9079      9081      9081      9082
      9081      9083      9081      9084      9084      9085      9084      9086
      9084      9087      9087      9088      9087      9089      9087      9090
      9090      9091      9090      9092      9090      9093      9093      9094
      9093      9095      9093      9096      9096      9097      9096      9098
      9096      9099      9099      9100      9099      9101      9099      9102
      9102      9103      9102      9104      9102      9105      9053      9054
      9054      9056      9054      9055      9056      9057      9056      9058
      9056      9106      9106      9107      9106      9108      9106      9109
      9109      9110      9109      9111      9109      9112      9112      9113
      9112      9114      9112      9115      9115      9116      9115      9117
      9115      9118      9118      9119      9118      9120      9118      9121
      9121      9122      9121      9123      9121      9124      9124      9125
      9124      9126      9124      9127      9127      9128      9127      9129
      9127      9130      9130      9131      9130      9132      9130      9133
      9133      9134      9133      9135      9133      9136      9136      9137
      9136      9138      9136      9139      9139      9140      9139      9141
      9139      9142      9142      9143      9142      9144      9142      9145
      9145      9146      9145      9147      9145      9148      9149      9153
      9149      9157      9149      9161      9153      9154      9153      9155
      9153      9156      9157      9158      9157      9159      9157      9160
      9161      9162      9161      9163      9161      9164      9149      9150
      9150      9151      9150      9152      9150      9165      9165      9166
      9165      9167      9165      9171      9172      9173      9171      9168
      9168      9172      9168      9169      9168      9170      9173      9174
      9173      9175      9173      9176      9176      9177      9176      9184
      9176      9178      9184      9185      9184      9186      9184      9187
      9178      9179      9179      9181      9179      9180      9181      9182
      9181      9183      9181      9193      9193      9194      9193      9195
      9193      9196      9196      9197      9196      9198      9196      9199
      9199      9200      9199      9201      9199      9202      9202      9203
      9202      9204      9202      9205      9205      9206      9205      9207
      9205      9208      9208      9209      9208      9210      9208      9211
      9211      9212      9211      9213      9213      9214      9213      9215
      9215      9216      9215      9217      9215      9218      9218      9219
      9218      9220      9218      9221      9221      9222      9221      9223
      9221      9224      9224      9225      9224      9226      9224      9227
      9227      9228      9227      9229      9227      9230      9230      9231
      9230      9232      9230      9233      9233      9234      9233      9235
      9233      9236      9236      9237      9236      9238      9236      9239
      9187      9188      9188      9190      9188      9189      9190      9191
      9190      9192      9190      9240      9240      9241      9240      9242
      9240      9243      9243      9244      9243      9245      9243      9246
      9246      9247      9246      9248      9246      9249      9249      9250
      9249      9251      9249      9252      9252      9253      9252      9254
      9252      9255      9255      9256      9255      9257      9255      9258
      9258      9259      9258      9260      9258      9261      9261      9262
      9261      9263      9261      9264      9264      9265      9264      9266
      9264      9267      9267      9268      9267      9269      9267      9270
      9270      9271      9270      9272      9270      9273      9273      9274
      9273      9275      9273      9276      9276      9277      9276      9278
      9276      9279      9279      9280      9279      9281      9279      9282
      9283      9287      9283      9291      9283      9295      9287      9288
      9287      9289      9287      9290      9291      9292      9291      9293
      9291      9294      9295      9296      9295      9297      9295      9298
      9283      9284      9284      9285      9284      9286      9284      9299
      9299      9300      9299      9301      9299      9305      9306      9307
      9305      9302      9302      9306      9302      9303      9302      9304
      9307      9308      9307      9309      9307      9310      9310      9311
      9310      9318      9310      9312      9318      9319      9318      9320
      9318      9321      9312      9313      9313      9315      9313      9314
      9315      9316      9315      9317      9315      9327      9327      9328
      9327      9329      9327      9330      9330      9331      9330      9332
      9330      9333      9333      9334      9333      9335      9333      9336
      9336      9337      9336      9338      9336      9339      9339      9340
      9339      9341      9339      9342      9342      9343      9342      9344
      9342      9345      9345      9346      9345      9347      9347      9348
      9347      9349      9349      9350      9349      9351      9349      9352
      9352      9353      9352      9354      9352      9355      9355      9356
      9355      9357      9355      9358      9358      9359      9358      9360
      9358      9361      9361      9362      9361      9363      9361      9364
      9364      9365      9364      9366      9364      9367      9367      9368
      9367      9369      9367      9370      9370      9371      9370      9372
      9370      9373      9321      9322      9322      9324      9322      9323
      9324      9325      9324      9326      9324      9374      9374      9375
      9374      9376      9374      9377      9377      9378      9377      9379
      9377      9380      9380      9381      9380      9382      9380      9383
      9383      9384      9383      9385      9383      9386      9386      9387
      9386      9388      9386      9389      9389      9390      9389      9391
      9389      9392      9392      9393      9392      9394      9392      9395
      9395      9396      9395      9397      9395      9398      9398      9399
      9398      9400      9398      9401      9401      9402      9401      9403
      9401      9404      9404      9405      9404      9406      9404      9407
      9407      9408      9407      9409      9407      9410      9410      9411
      9410      9412      9410      9413      9413      9414      9413      9415
      9413      9416      9417      9418      9417      9419      9417      9420
      9417      9421      9425      9423      9423      9421      9423      9424
      9421      9422      9421      9426      9434      9433      9426      9427
      9426      9428      9426      9432      9432      9429      9429      9433
      9429      9430      9429      9431      9434      9435      9434      9436
      9434      9437      9437      9438      9437      9445      9437      9439
      9445      9446      9445      9447      9445      9448      9439      9440
      9440      9442      9440      9441      9442      9443      9442      9444
      9442      9454      9454      9455      9454      9456      9454      9457
      9457      9458      9457      9459      9457      9460      9460      9461
      9460      9462      9460      9463      9463      9464      9463      9465
      9463      9466      9466      9467      9466      9468      9466      9469
      9469      9470      9469      9471      9469      9472      9472      9473
      9472      9474      9474      9475      9474      9476      9476      9477
      9476      9478      9476      9479      9479      9480      9479      9481
      9479      9482      9482      9483      9482      9484      9482      9485
      9485      9486      9485      9487      9485      9488      9488      9489
      9488      9490      9488      9491      9491      9492      9491      9493
      9491      9494      9494      9495      9494      9496      9494      9497
      9497      9498      9497      9499      9497      9500      9448      9449
      9449      9451      9449      9450      9451      9452      9451      9453
      9451      9501      9501      9502      9501      9503      9501      9504
      9504      9505      9504      9506      9504      9507      9507      9508
      9507      9509      9507      9510      9510      9511      9510      9512
      9510      9513      9513      9514      9513      9515      9513      9516
      9516      9517      9516      9518      9516      9519      9519      9520
      9519      9521      9519      9522      9522      9523      9522      9524
      9522      9525      9525      9526      9525      9527      9525      9528
      9528      9529      9528      9530      9528      9531      9531      9532
      9531      9533      9531      9534      9534      9535      9534      9536
      9534      9537      9537      9538      9537      9539      9537      9540
      9540      9541      9540      9542      9540      9543      9544      9548
      9544      9552      9544      9556      9548      9549      9548      9550
      9548      9551      9552      9553      9552      9554      9552      9555
      9556      9557      9556      9558      9556      9559      9544      9545
      9545      9546      9545      9547      9545      9560      9560      9561
      9560      9562      9560      9566      9567      9568      9566      9563
      9563      9567      9563      9564      9563      9565      9568      9569
      9568      9570      9568      9571      9571      9572      9571      9579
      9571      9573      9579      9580      9579      9581      9579      9582
      9573      9574      9574      9576      9574      9575      9576      9577
      9576      9578      9576      9588      9588      9589      9588      9590
      9588      9591      9591      9592      9591      9593      9591      9594
      9594      9595      9594      9596      9594      9597      9597      9598
      9597      9599      9597      9600      9600      9601      9600      9602
      9600      9603      9603      9604      9603      9605      9603      9606
      9606      9607      9606      9608      9608      9609      9608      9610
      9610      9611      9610      9612      9610      9613      9613      9614
      9613      9615      9613      9616      9616      9617      9616      9618
      9616      9619      9619      9620      9619      9621      9619      9622
      9622      9623      9622      9624      9622      9625      9625      9626
      9625      9627      9625      9628      9628      9629      9628      9630
      9628      9631      9631      9632      9631      9633      9631      9634
      9582      9583      9583      9585      9583      9584      9585      9586
      9585      9587      9585      9635      9635      9636      9635      9637
      9635      9638      9638      9639      9638      9640      9638      9641
      9641      9642      9641      9643      9641      9644      9644      9645
      9644      9646      9644      9647      9647      9648      9647      9649
      9647      9650      9650      9651      9650      9652      9650      9653
      9653      9654      9653      9655      9653      9656      9656      9657
      9656      9658      9656      9659      9659      9660      9659      9661
      9659      9662      9662      9663      9662      9664      9662      9665
      9665      9666      9665      9667      9665      9668      9668      9669
      9668      9670      9668      9671      9671      9672      9671      9673
      9671      9674      9674      9675      9674      9676      9674      9677
      9678      9679      9678      9680      9678      9681      9678      9682
      9686      9684      9684      9682      9684      9685      9682      9683
      9682      9687      9695      9694      9687      9688      9687      9689
      9687      9693      9693      9690      9690      9694      9690      9691
      9690      9692      9695      9696      9695      9697      9695      9698
      9698      9699      9698      9706      9698      9700      9706      9707
      9706      9708      9706      9709      9700      9701      9701      9703
      9701      9702      9703      9704      9703      9705      9703      9715
      9715      9716      9715      9717      9715      9718      9718      9719
      9718      9720      9718      9721      9721      9722      9721      9723
      9721      9724      9724      9725      9724      9726      9724      9727
      9727      9728      9727      9729      9727      9730      9730      9731
      9730      9732      9730      9733      9733      9734      9733      9735
      9735      9736      9735      9737      9737      9738      9737      9739
      9737      9740      9740      9741      9740      9742      9740      9743
      9743      9744      9743      9745      9743      9746      9746      9747
      9746      9748      9746      9749      9749      9750      9749      9751
      9749      9752      9752      9753      9752      9754      9752      9755
      9755      9756      9755      9757      9755      9758      9758      9759
      9758      9760      9758      9761      9709      9710      9710      9712
      9710      9711      9712      9713      9712      9714      9712      9762
      9762      9763      9762      9764      9762      9765      9765      9766
      9765      9767      9765      9768      9768      9769      9768      9770
      9768      9771      9771      9772      9771      9773      9771      9774
      9774      9775      9774      9776      9774      9777      9777      9778
      9777      9779      9777      9780      9780      9781      9780      9782
      9780      9783      9783      9784      9783      9785      9783      9786
      9786      9787      9786      9788      9786      9789      9789      9790
      9789      9791      9789      9792      9792      9793      9792      9794
      9792      9795      9795      9796      9795      9797      9795      9798
      9798      9799      9798      9800      9798      9801      9801      9802
      9801      9803      9801      9804      9805      9809      9805      9813
      9805      9817      9809      9810      9809      9811      9809      9812
      9813      9814      9813      9815      9813      9816      9817      9818
      9817      9819      9817      9820      9805      9806      9806      9807
      9806      9808      9806      9821      9821      9822      9821      9823
      9821      9827      9828      9829      9827      9824      9824      9828
      9824      9825      9824      9826      9829      9830      9829      9831
      9829      9832      9832      9833      9832      9840      9832      9834
      9840      9841      9840      9842      9840      9843      9834      9835
      9835      9837      9835      9836      9837      9838      9837      9839
      9837      9849      9849      9850      9849      9851      9849      9852
      9852      9853      9852      9854      9852      9855      9855      9856
      9855      9857      9855      9858      9858      9859      9858      9860
      9858      9861      9861      9862      9861      9863      9861      9864
      9864      9865      9864      9866      9864      9867      9867      9868
      9867      9869      9869      9870      9869      9871      9871      9872
      9871      9873      9871      9874      9874      9875      9874      9876
      9874      9877      9877      9878      9877      9879      9877      9880
      9880      9881      9880      9882      9880      9883      9883      9884
      9883      9885      9883      9886      9886      9887      9886      9888
      9886      9889      9889      9890      9889      9891      9889      9892
      9892      9893      9892      9894      9892      9895      9843      9844
      9844      9846      9844      9845      9846      9847      9846      9848
      9846      9896      9896      9897      9896      9898      9896      9899
      9899      9900      9899      9901      9899      9902      9902      9903
      9902      9904      9902      9905      9905      9906      9905      9907
      9905      9908      9908      9909      9908      9910      9908      9911
      9911      9912      9911      9913      9911      9914      9914      9915
      9914      9916      9914      9917      9917      9918      9917      9919
      9917      9920      9920      9921      9920      9922      9920      9923
      9923      9924      9923      9925      9923      9926      9926      9927
      9926      9928      9926      9929      9929      9930      9929      9931
      9929      9932      9932      9933      9932      9934      9932      9935
      9935      9936      9935      9937      9935      9938      9939      9943
      9939      9947      9939      9951      9943      9944      9943      9945
      9943      9946      9947      9948      9947      9949      9947      9950
      9951      9952      9951      9953      9951      9954      9939      9940
      9940      9941      9940      9942      9940      9955      9955      9956
      9955      9957      9955      9961      9962      9963      9961      9958
      9958      9962      9958      9959      9958      9960      9963      9964
      9963      9965      9963      9966      9966      9967      9966      9974
      9966      9968      9974      9975      9974      9976      9974      9977
      9968      9969      9969      9971      9969      9970      9971      9972
      9971      9973      9971      9983      9983      9984      9983      9985
      9983      9986      9986      9987      9986      9988      9986      9989
      9989      9990      9989      9991      9989      9992      9992      9993
      9992      9994      9992      9995      9995      9996      9995      9997
      9995      9998      9998      9999      9998     10000      9998     10001
     10001     10002     10001     10003     10003     10004     10003     10005
     10005     10006     10005     10007     10005     10008     10008     10009
     10008     10010     10008     10011     10011     10012     10011     10013
     10011     10014     10014     10015     10014     10016     10014     10017
     10017     10018     10017     10019     10017     10020     10020     10021
     10020     10022     10020     10023     10023     10024     10023     10025
     10023     10026     10026     10027     10026     10028     10026     10029
      9977      9978      9978      9980      9978      9979      9980      9981
      9980      9982      9980     10030     10030     10031     10030     10032
     10030     10033     10033     10034     10033     10035     10033     10036
     10036     10037     10036     10038     10036     10039     10039     10040
     10039     10041     10039     10042     10042     10043     10042     10044
     10042     10045     10045     10046     10045     10047     10045     10048
     10048     10049     10048     10050     10048     10051     10051     10052
     10051     10053     10051     10054     10054     10055     10054     10056
     10054     10057     10057     10058     10057     10059     10057     10060
     10060     10061     10060     10062     10060     10063     10063     10064
     10063     10065     10063     10066     10066     10067     10066     10068
     10066     10069     10069     10070     10069     10071     10069     10072
     10073     10077     10073     10081     10073     10085     10077     10078
     10077     10079     10077     10080     10081     10082     10081     10083
     10081     10084     10085     10086     10085     10087     10085     10088
     10073     10074     10074     10075     10074     10076     10074     10089
     10089     10090     10089     10091     10089     10095     10096     10097
     10095     10092     10092     10096     10092     10093     10092     10094
     10097     10098     10097     10099     10097     10100     10100     10101
     10100     10108     10100     10102     10108     10109     10108     10110
     10108     10111     10102     10103     10103     10105     10103     10104
     10105     10106     10105     10107     10105     10117     10117     10118
     10117     10119     10117     10120     10120     10121     10120     10122
     10120     10123     10123     10124     10123     10125     10123     10126
     10126     10127     10126     10128     10126     10129     10129     10130
     10129     10131     10129     10132     10132     10133     10132     10134
     10132     10135     10135     10136     10135     10137     10137     10138
     10137     10139     10139     10140     10139     10141     10139     10142
     10142     10143     10142     10144     10142     10145     10145     10146
     10145     10147     10145     10148     10148     10149     10148     10150
     10148     10151     10151     10152     10151     10153     10151     10154
     10154     10155     10154     10156     10154     10157     10157     10158
     10157     10159     10157     10160     10160     10161     10160     10162
     10160     10163     10111     10112     10112     10114     10112     10113
     10114     10115     10114     10116     10114     10164     10164     10165
     10164     10166     10164     10167     10167     10168     10167     10169
     10167     10170     10170     10171     10170     10172     10170     10173
     10173     10174     10173     10175     10173     10176     10176     10177
     10176     10178     10176     10179     10179     10180     10179     10181
     10179     10182     10182     10183     10182     10184     10182     10185
     10185     10186     10185     10187     10185     10188     10188     10189
     10188     10190     10188     10191     10191     10192     10191     10193
     10191     10194     10194     10195     10194     10196     10194     10197
     10197     10198     10197     10199     10197     10200     10200     10201
     10200     10202     10200     10203     10203     10204     10203     10205
     10203     10206     10207     10208     10207     10209     10207     10210
     10207     10211     10215     10213     10213     10211     10213     10214
     10211     10212     10211     10216     10224     10223     10216     10217
     10216     10218     10216     10222     10222     10219     10219     10223
     10219     10220     10219     10221     10224     10225     10224     10226
     10224     10227     10227     10228     10227     10235     10227     10229
     10235     10236     10235     10237     10235     10238     10229     10230
     10230     10232     10230     10231     10232     10233     10232     10234
     10232     10244     10244     10245     10244     10246     10244     10247
     10247     10248     10247     10249     10247     10250     10250     10251
     10250     10252     10250     10253     10253     10254     10253     10255
     10253     10256     10256     10257     10256     10258     10256     10259
     10259     10260     10259     10261     10259     10262     10262     10263
     10262     10264     10264     10265     10264     10266     10266     10267
     10266     10268     10266     10269     10269     10270     10269     10271
     10269     10272     10272     10273     10272     10274     10272     10275
     10275     10276     10275     10277     10275     10278     10278     10279
     10278     10280     10278     10281     10281     10282     10281     10283
     10281     10284     10284     10285     10284     10286     10284     10287
     10287     10288     10287     10289     10287     10290     10238     10239
     10239     10241     10239     10240     10241     10242     10241     10243
     10241     10291     10291     10292     10291     10293     10291     10294
     10294     10295     10294     10296     10294     10297     10297     10298
     10297     10299     10297     10300     10300     10301     10300     10302
     10300     10303     10303     10304     10303     10305     10303     10306
     10306     10307     10306     10308     10306     10309     10309     10310
     10309     10311     10309     10312     10312     10313     10312     10314
     10312     10315     10315     10316     10315     10317     10315     10318
     10318     10319     10318     10320     10318     10321     10321     10322
     10321     10323     10321     10324     10324     10325     10324     10326
     10324     10327     10327     10328     10327     10329     10327     10330
     10330     10331     10330     10332     10330     10333     10334     10338
     10334     10342     10334     10346     10338     10339     10338     10340
     10338     10341     10342     10343     10342     10344     10342     10345
     10346     10347     10346     10348     10346     10349     10334     10335
     10335     10336     10335     10337     10335     10350     10350     10351
     10350     10352     10350     10356     10357     10358     10356     10353
     10353     10357     10353     10354     10353     10355     10358     10359
     10358     10360     10358     10361     10361     10362     10361     10369
     10361     10363     10369     10370     10369     10371     10369     10372
     10363     10364     10364     10366     10364     10365     10366     10367
     10366     10368     10366     10378     10378     10379     10378     10380
     10378     10381     10381     10382     10381     10383     10381     10384
     10384     10385     10384     10386     10384     10387     10387     10388
     10387     10389     10387     10390     10390     10391     10390     10392
     10390     10393     10393     10394     10393     10395     10393     10396
     10396     10397     10396     10398     10398     10399     10398     10400
     10400     10401     10400     10402     10400     10403     10403     10404
     10403     10405     10403     10406     10406     10407     10406     10408
     10406     10409     10409     10410     10409     10411     10409     10412
     10412     10413     10412     10414     10412     10415     10415     10416
     10415     10417     10415     10418     10418     10419     10418     10420
     10418     10421     10421     10422     10421     10423     10421     10424
     10372     10373     10373     10375     10373     10374     10375     10376
     10375     10377     10375     10425     10425     10426     10425     10427
     10425     10428     10428     10429     10428     10430     10428     10431
     10431     10432     10431     10433     10431     10434     10434     10435
     10434     10436     10434     10437     10437     10438     10437     10439
     10437     10440     10440     10441     10440     10442     10440     10443
     10443     10444     10443     10445     10443     10446     10446     10447
     10446     10448     10446     10449     10449     10450     10449     10451
     10449     10452     10452     10453     10452     10454     10452     10455
     10455     10456     10455     10457     10455     10458     10458     10459
     10458     10460     10458     10461     10461     10462     10461     10463
     10461     10464     10464     10465     10464     10466     10464     10467
     10468     10469     10468     10470     10468     10471     10468     10472
     10476     10474     10474     10472     10474     10475     10472     10473
     10472     10477     10485     10484     10477     10478     10477     10479
     10477     10483     10483     10480     10480     10484     10480     10481
     10480     10482     10485     10486     10485     10487     10485     10488
     10488     10489     10488     10496     10488     10490     10496     10497
     10496     10498     10496     10499     10490     10491     10491     10493
     10491     10492     10493     10494     10493     10495     10493     10505
     10505     10506     10505     10507     10505     10508     10508     10509
     10508     10510     10508     10511     10511     10512     10511     10513
     10511     10514     10514     10515     10514     10516     10514     10517
     10517     10518     10517     10519     10517     10520     10520     10521
     10520     10522     10520     10523     10523     10524     10523     10525
     10525     10526     10525     10527     10527     10528     10527     10529
     10527     10530     10530     10531     10530     10532     10530     10533
     10533     10534     10533     10535     10533     10536     10536     10537
     10536     10538     10536     10539     10539     10540     10539     10541
     10539     10542     10542     10543     10542     10544     10542     10545
     10545     10546     10545     10547     10545     10548     10548     10549
     10548     10550     10548     10551     10499     10500     10500     10502
     10500     10501     10502     10503     10502     10504     10502     10552
     10552     10553     10552     10554     10552     10555     10555     10556
     10555     10557     10555     10558     10558     10559     10558     10560
     10558     10561     10561     10562     10561     10563     10561     10564
     10564     10565     10564     10566     10564     10567     10567     10568
     10567     10569     10567     10570     10570     10571     10570     10572
     10570     10573     10573     10574     10573     10575     10573     10576
     10576     10577     10576     10578     10576     10579     10579     10580
     10579     10581     10579     10582     10582     10583     10582     10584
     10582     10585     10585     10586     10585     10587     10585     10588
     10588     10589     10588     10590     10588     10591     10591     10592
     10591     10593     10591     10594     10595     10596     10595     10597
     10595     10598     10595     10599     10603     10601     10601     10599
     10601     10602     10599     10600     10599     10604     10612     10611
     10604     10605     10604     10606     10604     10610     10610     10607
     10607     10611     10607     10608     10607     10609     10612     10613
     10612     10614     10612     10615     10615     10616     10615     10623
     10615     10617     10623     10624     10623     10625     10623     10626
     10617     10618     10618     10620     10618     10619     10620     10621
     10620     10622     10620     10632     10632     10633     10632     10634
     10632     10635     10635     10636     10635     10637     10635     10638
     10638     10639     10638     10640     10638     10641     10641     10642
     10641     10643     10641     10644     10644     10645     10644     10646
     10644     10647     10647     10648     10647     10649     10647     10650
     10650     10651     10650     10652     10652     10653     10652     10654
     10654     10655     10654     10656     10654     10657     10657     10658
     10657     10659     10657     10660     10660     10661     10660     10662
     10660     10663     10663     10664     10663     10665     10663     10666
     10666     10667     10666     10668     10666     10669     10669     10670
     10669     10671     10669     10672     10672     10673     10672     10674
     10672     10675     10675     10676     10675     10677     10675     10678
     10626     10627     10627     10629     10627     10628     10629     10630
     10629     10631     10629     10679     10679     10680     10679     10681
     10679     10682     10682     10683     10682     10684     10682     10685
     10685     10686     10685     10687     10685     10688     10688     10689
     10688     10690     10688     10691     10691     10692     10691     10693
     10691     10694     10694     10695     10694     10696     10694     10697
     10697     10698     10697     10699     10697     10700     10700     10701
     10700     10702     10700     10703     10703     10704     10703     10705
     10703     10706     10706     10707     10706     10708     10706     10709
     10709     10710     10709     10711     10709     10712     10712     10713
     10712     10714     10712     10715     10715     10716     10715     10717
     10715     10718     10718     10719     10718     10720     10718     10721
     10722     10726     10722     10730     10722     10734     10726     10727
     10726     10728     10726     10729     10730     10731     10730     10732
     10730     10733     10734     10735     10734     10736     10734     10737
     10722     10723     10723     10724     10723     10725     10723     10738
     10738     10739     10738     10740     10738     10744     10745     10746
     10744     10741     10741     10745     10741     10742     10741     10743
     10746     10747     10746     10748     10746     10749     10749     10750
     10749     10757     10749     10751     10757     10758     10757     10759
     10757     10760     10751     10752     10752     10754     10752     10753
     10754     10755     10754     10756     10754     10766     10766     10767
     10766     10768     10766     10769     10769     10770     10769     10771
     10769     10772     10772     10773     10772     10774     10772     10775
     10775     10776     10775     10777     10775     10778     10778     10779
     10778     10780     10778     10781     10781     10782     10781     10783
     10781     10784     10784     10785     10784     10786     10786     10787
     10786     10788     10788     10789     10788     10790     10788     10791
     10791     10792     10791     10793     10791     10794     10794     10795
     10794     10796     10794     10797     10797     10798     10797     10799
     10797     10800     10800     10801     10800     10802     10800     10803
     10803     10804     10803     10805     10803     10806     10806     10807
     10806     10808     10806     10809     10809     10810     10809     10811
     10809     10812     10760     10761     10761     10763     10761     10762
     10763     10764     10763     10765     10763     10813     10813     10814
     10813     10815     10813     10816     10816     10817     10816     10818
     10816     10819     10819     10820     10819     10821     10819     10822
     10822     10823     10822     10824     10822     10825     10825     10826
     10825     10827     10825     10828     10828     10829     10828     10830
     10828     10831     10831     10832     10831     10833     10831     10834
     10834     10835     10834     10836     10834     10837     10837     10838
     10837     10839     10837     10840     10840     10841     10840     10842
     10840     10843     10843     10844     10843     10845     10843     10846
     10846     10847     10846     10848     10846     10849     10849     10850
     10849     10851     10849     10852     10852     10853     10852     10854
     10852     10855     10856     10860     10856     10864     10856     10868
     10860     10861     10860     10862     10860     10863     10864     10865
     10864     10866     10864     10867     10868     10869     10868     10870
     10868     10871     10856     10857     10857     10858     10857     10859
     10857     10872     10872     10873     10872     10874     10872     10878
     10879     10880     10878     10875     10875     10879     10875     10876
     10875     10877     10880     10881     10880     10882     10880     10883
     10883     10884     10883     10891     10883     10885     10891     10892
     10891     10893     10891     10894     10885     10886     10886     10888
     10886     10887     10888     10889     10888     10890     10888     10900
     10900     10901     10900     10902     10900     10903     10903     10904
     10903     10905     10903     10906     10906     10907     10906     10908
     10906     10909     10909     10910     10909     10911     10909     10912
     10912     10913     10912     10914     10912     10915     10915     10916
     10915     10917     10915     10918     10918     10919     10918     10920
     10920     10921     10920     10922     10922     10923     10922     10924
     10922     10925     10925     10926     10925     10927     10925     10928
     10928     10929     10928     10930     10928     10931     10931     10932
     10931     10933     10931     10934     10934     10935     10934     10936
     10934     10937     10937     10938     10937     10939     10937     10940
     10940     10941     10940     10942     10940     10943     10943     10944
     10943     10945     10943     10946     10894     10895     10895     10897
     10895     10896     10897     10898     10897     10899     10897     10947
     10947     10948     10947     10949     10947     10950     10950     10951
     10950     10952     10950     10953     10953     10954     10953     10955
     10953     10956     10956     10957     10956     10958     10956     10959
     10959     10960     10959     10961     10959     10962     10962     10963
     10962     10964     10962     10965     10965     10966     10965     10967
     10965     10968     10968     10969     10968     10970     10968     10971
     10971     10972     10971     10973     10971     10974     10974     10975
     10974     10976     10974     10977     10977     10978     10977     10979
     10977     10980     10980     10981     10980     10982     10980     10983
     10983     10984     10983     10985     10983     10986     10986     10987
     10986     10988     10986     10989     10990     10994     10990     10998
     10990     11002     10994     10995     10994     10996     10994     10997
     10998     10999     10998     11000     10998     11001     11002     11003
     11002     11004     11002     11005     10990     10991     10991     10992
     10991     10993     10991     11006     11006     11007     11006     11008
     11006     11012     11013     11014     11012     11009     11009     11013
     11009     11010     11009     11011     11014     11015     11014     11016
     11014     11017     11017     11018     11017     11025     11017     11019
     11025     11026     11025     11027     11025     11028     11019     11020
     11020     11022     11020     11021     11022     11023     11022     11024
     11022     11034     11034     11035     11034     11036     11034     11037
     11037     11038     11037     11039     11037     11040     11040     11041
     11040     11042     11040     11043     11043     11044     11043     11045
     11043     11046     11046     11047     11046     11048     11046     11049
     11049     11050     11049     11051     11049     11052     11052     11053
     11052     11054     11054     11055     11054     11056     11056     11057
     11056     11058     11056     11059     11059     11060     11059     11061
     11059     11062     11062     11063     11062     11064     11062     11065
     11065     11066     11065     11067     11065     11068     11068     11069
     11068     11070     11068     11071     11071     11072     11071     11073
     11071     11074     11074     11075     11074     11076     11074     11077
     11077     11078     11077     11079     11077     11080     11028     11029
     11029     11031     11029     11030     11031     11032     11031     11033
     11031     11081     11081     11082     11081     11083     11081     11084
     11084     11085     11084     11086     11084     11087     11087     11088
     11087     11089     11087     11090     11090     11091     11090     11092
     11090     11093     11093     11094     11093     11095     11093     11096
     11096     11097     11096     11098     11096     11099     11099     11100
     11099     11101     11099     11102     11102     11103     11102     11104
     11102     11105     11105     11106     11105     11107     11105     11108
     11108     11109     11108     11110     11108     11111     11111     11112
     11111     11113     11111     11114     11114     11115     11114     11116
     11114     11117     11117     11118     11117     11119     11117     11120
     11120     11121     11120     11122     11120     11123     11124     11128
     11124     11132     11124     11136     11128     11129     11128     11130
     11128     11131     11132     11133     11132     11134     11132     11135
     11136     11137     11136     11138     11136     11139     11124     11125
     11125     11126     11125     11127     11125     11140     11140     11141
     11140     11142     11140     11146     11147     11148     11146     11143
     11143     11147     11143     11144     11143     11145     11148     11149
     11148     11150     11148     11151     11151     11152     11151     11159
     11151     11153     11159     11160     11159     11161     11159     11162
     11153     11154     11154     11156     11154     11155     11156     11157
     11156     11158     11156     11168     11168     11169     11168     11170
     11168     11171     11171     11172     11171     11173     11171     11174
     11174     11175     11174     11176     11174     11177     11177     11178
     11177     11179     11177     11180     11180     11181     11180     11182
     11180     11183     11183     11184     11183     11185     11183     11186
     11186     11187     11186     11188     11188     11189     11188     11190
     11190     11191     11190     11192     11190     11193     11193     11194
     11193     11195     11193     11196     11196     11197     11196     11198
     11196     11199     11199     11200     11199     11201     11199     11202
     11202     11203     11202     11204     11202     11205     11205     11206
     11205     11207     11205     11208     11208     11209     11208     11210
     11208     11211     11211     11212     11211     11213     11211     11214
     11162     11163     11163     11165     11163     11164     11165     11166
     11165     11167     11165     11215     11215     11216     11215     11217
     11215     11218     11218     11219     11218     11220     11218     11221
     11221     11222     11221     11223     11221     11224     11224     11225
     11224     11226     11224     11227     11227     11228     11227     11229
     11227     11230     11230     11231     11230     11232     11230     11233
     11233     11234     11233     11235     11233     11236     11236     11237
     11236     11238     11236     11239     11239     11240     11239     11241
     11239     11242     11242     11243     11242     11244     11242     11245
     11245     11246     11245     11247     11245     11248     11248     11249
     11248     11250     11248     11251     11251     11252     11251     11253
     11251     11254     11254     11255     11254     11256     11254     11257
     11258     11262     11258     11266     11258     11270     11262     11263
     11262     11264     11262     11265     11266     11267     11266     11268
     11266     11269     11270     11271     11270     11272     11270     11273
     11258     11259     11259     11260     11259     11261     11259     11274
     11274     11275     11274     11276     11274     11280     11281     11282
     11280     11277     11277     11281     11277     11278     11277     11279
     11282     11283     11282     11284     11282     11285     11285     11286
     11285     11293     11285     11287     11293     11294     11293     11295
     11293     11296     11287     11288     11288     11290     11288     11289
     11290     11291     11290     11292     11290     11302     11302     11303
     11302     11304     11302     11305     11305     11306     11305     11307
     11305     11308     11308     11309     11308     11310     11308     11311
     11311     11312     11311     11313     11311     11314     11314     11315
     11314     11316     11314     11317     11317     11318     11317     11319
     11317     11320     11320     11321     11320     11322     11322     11323
     11322     11324     11324     11325     11324     11326     11324     11327
     11327     11328     11327     11329     11327     11330     11330     11331
     11330     11332     11330     11333     11333     11334     11333     11335
     11333     11336     11336     11337     11336     11338     11336     11339
     11339     11340     11339     11341     11339     11342     11342     11343
     11342     11344     11342     11345     11345     11346     11345     11347
     11345     11348     11296     11297     11297     11299     11297     11298
     11299     11300     11299     11301     11299     11349     11349     11350
     11349     11351     11349     11352     11352     11353     11352     11354
     11352     11355     11355     11356     11355     11357     11355     11358
     11358     11359     11358     11360     11358     11361     11361     11362
     11361     11363     11361     11364     11364     11365     11364     11366
     11364     11367     11367     11368     11367     11369     11367     11370
     11370     11371     11370     11372     11370     11373     11373     11374
     11373     11375     11373     11376     11376     11377     11376     11378
     11376     11379     11379     11380     11379     11381     11379     11382
     11382     11383     11382     11384     11382     11385     11385     11386
     11385     11387     11385     11388     11388     11389     11388     11390
     11388     11391     11392     11396     11392     11400     11392     11404
     11396     11397     11396     11398     11396     11399     11400     11401
     11400     11402     11400     11403     11404     11405     11404     11406
     11404     11407     11392     11393     11393     11394     11393     11395
     11393     11408     11408     11409     11408     11410     11408     11414
     11415     11416     11414     11411     11411     11415     11411     11412
     11411     11413     11416     11417     11416     11418     11416     11419
     11419     11420     11419     11427     11419     11421     11427     11428
     11427     11429     11427     11430     11421     11422     11422     11424
     11422     11423     11424     11425     11424     11426     11424     11436
     11436     11437     11436     11438     11436     11439     11439     11440
     11439     11441     11439     11442     11442     11443     11442     11444
     11442     11445     11445     11446     11445     11447     11445     11448
     11448     11449     11448     11450     11448     11451     11451     11452
     11451     11453     11451     11454     11454     11455     11454     11456
     11456     11457     11456     11458     11458     11459     11458     11460
     11458     11461     11461     11462     11461     11463     11461     11464
     11464     11465     11464     11466     11464     11467     11467     11468
     11467     11469     11467     11470     11470     11471     11470     11472
     11470     11473     11473     11474     11473     11475     11473     11476
     11476     11477     11476     11478     11476     11479     11479     11480
     11479     11481     11479     11482     11430     11431     11431     11433
     11431     11432     11433     11434     11433     11435     11433     11483
     11483     11484     11483     11485     11483     11486     11486     11487
     11486     11488     11486     11489     11489     11490     11489     11491
     11489     11492     11492     11493     11492     11494     11492     11495
     11495     11496     11495     11497     11495     11498     11498     11499
     11498     11500     11498     11501     11501     11502     11501     11503
     11501     11504     11504     11505     11504     11506     11504     11507
     11507     11508     11507     11509     11507     11510     11510     11511
     11510     11512     11510     11513     11513     11514     11513     11515
     11513     11516     11516     11517     11516     11518     11516     11519
     11519     11520     11519     11521     11519     11522     11522     11523
     11522     11524     11522     11525     11526     11530     11526     11534
     11526     11538     11530     11531     11530     11532     11530     11533
     11534     11535     11534     11536     11534     11537     11538     11539
     11538     11540     11538     11541     11526     11527     11527     11528
     11527     11529     11527     11542     11542     11543     11542     11544
     11542     11548     11549     11550     11548     11545     11545     11549
     11545     11546     11545     11547     11550     11551     11550     11552
     11550     11553     11553     11554     11553     11561     11553     11555
     11561     11562     11561     11563     11561     11564     11555     11556
     11556     11558     11556     11557     11558     11559     11558     11560
     11558     11570     11570     11571     11570     11572     11570     11573
     11573     11574     11573     11575     11573     11576     11576     11577
     11576     11578     11576     11579     11579     11580     11579     11581
     11579     11582     11582     11583     11582     11584     11582     11585
     11585     11586     11585     11587     11585     11588     11588     11589
     11588     11590     11590     11591     11590     11592     11592     11593
     11592     11594     11592     11595     11595     11596     11595     11597
     11595     11598     11598     11599     11598     11600     11598     11601
     11601     11602     11601     11603     11601     11604     11604     11605
     11604     11606     11604     11607     11607     11608     11607     11609
     11607     11610     11610     11611     11610     11612     11610     11613
     11613     11614     11613     11615     11613     11616     11564     11565
     11565     11567     11565     11566     11567     11568     11567     11569
     11567     11617     11617     11618     11617     11619     11617     11620
     11620     11621     11620     11622     11620     11623     11623     11624
     11623     11625     11623     11626     11626     11627     11626     11628
     11626     11629     11629     11630     11629     11631     11629     11632
     11632     11633     11632     11634     11632     11635     11635     11636
     11635     11637     11635     11638     11638     11639     11638     11640
     11638     11641     11641     11642     11641     11643     11641     11644
     11644     11645     11644     11646     11644     11647     11647     11648
     11647     11649     11647     11650     11650     11651     11650     11652
     11650     11653     11653     11654     11653     11655     11653     11656
     11656     11657     11656     11658     11656     11659     11660     11664
     11660     11668     11660     11672     11664     11665     11664     11666
     11664     11667     11668     11669     11668     11670     11668     11671
     11672     11673     11672     11674     11672     11675     11660     11661
     11661     11662     11661     11663     11661     11676     11676     11677
     11676     11678     11676     11682     11683     11684     11682     11679
     11679     11683     11679     11680     11679     11681     11684     11685
     11684     11686     11684     11687     11687     11688     11687     11695
     11687     11689     11695     11696     11695     11697     11695     11698
     11689     11690     11690     11692     11690     11691     11692     11693
     11692     11694     11692     11704     11704     11705     11704     11706
     11704     11707     11707     11708     11707     11709     11707     11710
     11710     11711     11710     11712     11710     11713     11713     11714
     11713     11715     11713     11716     11716     11717     11716     11718
     11716     11719     11719     11720     11719     11721     11719     11722
     11722     11723     11722     11724     11724     11725     11724     11726
     11726     11727     11726     11728     11726     11729     11729     11730
     11729     11731     11729     11732     11732     11733     11732     11734
     11732     11735     11735     11736     11735     11737     11735     11738
     11738     11739     11738     11740     11738     11741     11741     11742
     11741     11743     11741     11744     11744     11745     11744     11746
     11744     11747     11747     11748     11747     11749     11747     11750
     11698     11699     11699     11701     11699     11700     11701     11702
     11701     11703     11701     11751     11751     11752     11751     11753
     11751     11754     11754     11755     11754     11756     11754     11757
     11757     11758     11757     11759     11757     11760     11760     11761
     11760     11762     11760     11763     11763     11764     11763     11765
     11763     11766     11766     11767     11766     11768     11766     11769
     11769     11770     11769     11771     11769     11772     11772     11773
     11772     11774     11772     11775     11775     11776     11775     11777
     11775     11778     11778     11779     11778     11780     11778     11781
     11781     11782     11781     11783     11781     11784     11784     11785
     11784     11786     11784     11787     11787     11788     11787     11789
     11787     11790     11790     11791     11790     11792     11790     11793
     11794     11798     11794     11802     11794     11806     11798     11799
     11798     11800     11798     11801     11802     11803     11802     11804
     11802     11805     11806     11807     11806     11808     11806     11809
     11794     11795     11795     11796     11795     11797     11795     11810
     11810     11811     11810     11812     11810     11816     11817     11818
     11816     11813     11813     11817     11813     11814     11813     11815
     11818     11819     11818     11820     11818     11821     11821     11822
     11821     11829     11821     11823     11829     11830     11829     11831
     11829     11832     11823     11824     11824     11826     11824     11825
     11826     11827     11826     11828     11826     11838     11838     11839
     11838     11840     11838     11841     11841     11842     11841     11843
     11841     11844     11844     11845     11844     11846     11844     11847
     11847     11848     11847     11849     11847     11850     11850     11851
     11850     11852     11850     11853     11853     11854     11853     11855
     11853     11856     11856     11857     11856     11858     11858     11859
     11858     11860     11860     11861     11860     11862     11860     11863
     11863     11864     11863     11865     11863     11866     11866     11867
     11866     11868     11866     11869     11869     11870     11869     11871
     11869     11872     11872     11873     11872     11874     11872     11875
     11875     11876     11875     11877     11875     11878     11878     11879
     11878     11880     11878     11881     11881     11882     11881     11883
     11881     11884     11832     11833     11833     11835     11833     11834
     11835     11836     11835     11837     11835     11885     11885     11886
     11885     11887     11885     11888     11888     11889     11888     11890
     11888     11891     11891     11892     11891     11893     11891     11894
     11894     11895     11894     11896     11894     11897     11897     11898
     11897     11899     11897     11900     11900     11901     11900     11902
     11900     11903     11903     11904     11903     11905     11903     11906
     11906     11907     11906     11908     11906     11909     11909     11910
     11909     11911     11909     11912     11912     11913     11912     11914
     11912     11915     11915     11916     11915     11917     11915     11918
     11918     11919     11918     11920     11918     11921     11921     11922
     11921     11923     11921     11924     11924     11925     11924     11926
     11924     11927     11928     11929     11928     11930     11928     11931
     11928     11932     11936     11934     11934     11932     11934     11935
     11932     11933     11932     11937     11945     11944     11937     11938
     11937     11939     11937     11943     11943     11940     11940     11944
     11940     11941     11940     11942     11945     11946     11945     11947
     11945     11948     11948     11949     11948     11956     11948     11950
     11956     11957     11956     11958     11956     11959     11950     11951
     11951     11953     11951     11952     11953     11954     11953     11955
     11953     11965     11965     11966     11965     11967     11965     11968
     11968     11969     11968     11970     11968     11971     11971     11972
     11971     11973     11971     11974     11974     11975     11974     11976
     11974     11977     11977     11978     11977     11979     11977     11980
     11980     11981     11980     11982     11980     11983     11983     11984
     11983     11985     11985     11986     11985     11987     11987     11988
     11987     11989     11987     11990     11990     11991     11990     11992
     11990     11993     11993     11994     11993     11995     11993     11996
     11996     11997     11996     11998     11996     11999     11999     12000
     11999     12001     11999     12002     12002     12003     12002     12004
     12002     12005     12005     12006     12005     12007     12005     12008
     12008     12009     12008     12010     12008     12011     11959     11960
     11960     11962     11960     11961     11962     11963     11962     11964
     11962     12012     12012     12013     12012     12014     12012     12015
     12015     12016     12015     12017     12015     12018     12018     12019
     12018     12020     12018     12021     12021     12022     12021     12023
     12021     12024     12024     12025     12024     12026     12024     12027
     12027     12028     12027     12029     12027     12030     12030     12031
     12030     12032     12030     12033     12033     12034     12033     12035
     12033     12036     12036     12037     12036     12038     12036     12039
     12039     12040     12039     12041     12039     12042     12042     12043
     12042     12044     12042     12045     12045     12046     12045     12047
     12045     12048     12048     12049     12048     12050     12048     12051
     12051     12052     12051     12053     12051     12054     12055     12056
     12055     12057     12055     12058     12055     12059     12063     12061
     12061     12059     12061     12062     12059     12060     12059     12064
     12072     12071     12064     12065     12064     12066     12064     12070
     12070     12067     12067     12071     12067     12068     12067     12069
     12072     12073     12072     12074     12072     12075     12075     12076
     12075     12083     12075     12077     12083     12084     12083     12085
     12083     12086     12077     12078     12078     12080     12078     12079
     12080     12081     12080     12082     12080     12092     12092     12093
     12092     12094     12092     12095     12095     12096     12095     12097
     12095     12098     12098     12099     12098     12100     12098     12101
     12101     12102     12101     12103     12101     12104     12104     12105
     12104     12106     12104     12107     12107     12108     12107     12109
     12107     12110     12110     12111     12110     12112     12112     12113
     12112     12114     12114     12115     12114     12116     12114     12117
     12117     12118     12117     12119     12117     12120     12120     12121
     12120     12122     12120     12123     12123     12124     12123     12125
     12123     12126     12126     12127     12126     12128     12126     12129
     12129     12130     12129     12131     12129     12132     12132     12133
     12132     12134     12132     12135     12135     12136     12135     12137
     12135     12138     12086     12087     12087     12089     12087     12088
     12089     12090     12089     12091     12089     12139     12139     12140
     12139     12141     12139     12142     12142     12143     12142     12144
     12142     12145     12145     12146     12145     12147     12145     12148
     12148     12149     12148     12150     12148     12151     12151     12152
     12151     12153     12151     12154     12154     12155     12154     12156
     12154     12157     12157     12158     12157     12159     12157     12160
     12160     12161     12160     12162     12160     12163     12163     12164
     12163     12165     12163     12166     12166     12167     12166     12168
     12166     12169     12169     12170     12169     12171     12169     12172
     12172     12173     12172     12174     12172     12175     12175     12176
     12175     12177     12175     12178     12178     12179     12178     12180
     12178     12181     12182     12186     12182     12190     12182     12194
     12186     12187     12186     12188     12186     12189     12190     12191
     12190     12192     12190     12193     12194     12195     12194     12196
     12194     12197     12182     12183     12183     12184     12183     12185
     12183     12198     12198     12199     12198     12200     12198     12204
     12205     12206     12204     12201     12201     12205     12201     12202
     12201     12203     12206     12207     12206     12208     12206     12209
     12209     12210     12209     12217     12209     12211     12217     12218
     12217     12219     12217     12220     12211     12212     12212     12214
     12212     12213     12214     12215     12214     12216     12214     12226
     12226     12227     12226     12228     12226     12229     12229     12230
     12229     12231     12229     12232     12232     12233     12232     12234
     12232     12235     12235     12236     12235     12237     12235     12238
     12238     12239     12238     12240     12238     12241     12241     12242
     12241     12243     12241     12244     12244     12245     12244     12246
     12246     12247     12246     12248     12248     12249     12248     12250
     12248     12251     12251     12252     12251     12253     12251     12254
     12254     12255     12254     12256     12254     12257     12257     12258
     12257     12259     12257     12260     12260     12261     12260     12262
     12260     12263     12263     12264     12263     12265     12263     12266
     12266     12267     12266     12268     12266     12269     12269     12270
     12269     12271     12269     12272     12220     12221     12221     12223
     12221     12222     12223     12224     12223     12225     12223     12273
     12273     12274     12273     12275     12273     12276     12276     12277
     12276     12278     12276     12279     12279     12280     12279     12281
     12279     12282     12282     12283     12282     12284     12282     12285
     12285     12286     12285     12287     12285     12288     12288     12289
     12288     12290     12288     12291     12291     12292     12291     12293
     12291     12294     12294     12295     12294     12296     12294     12297
     12297     12298     12297     12299     12297     12300     12300     12301
     12300     12302     12300     12303     12303     12304     12303     12305
     12303     12306     12306     12307     12306     12308     12306     12309
     12309     12310     12309     12311     12309     12312     12312     12313
     12312     12314     12312     12315     12316     12320     12316     12324
     12316     12328     12320     12321     12320     12322     12320     12323
     12324     12325     12324     12326     12324     12327     12328     12329
     12328     12330     12328     12331     12316     12317     12317     12318
     12317     12319     12317     12332     12332     12333     12332     12334
     12332     12338     12339     12340     12338     12335     12335     12339
     12335     12336     12335     12337     12340     12341     12340     12342
     12340     12343     12343     12344     12343     12351     12343     12345
     12351     12352     12351     12353     12351     12354     12345     12346
     12346     12348     12346     12347     12348     12349     12348     12350
     12348     12360     12360     12361     12360     12362     12360     12363
     12363     12364     12363     12365     12363     12366     12366     12367
     12366     12368     12366     12369     12369     12370     12369     12371
     12369     12372     12372     12373     12372     12374     12372     12375
     12375     12376     12375     12377     12375     12378     12378     12379
     12378     12380     12380     12381     12380     12382     12382     12383
     12382     12384     12382     12385     12385     12386     12385     12387
     12385     12388     12388     12389     12388     12390     12388     12391
     12391     12392     12391     12393     12391     12394     12394     12395
     12394     12396     12394     12397     12397     12398     12397     12399
     12397     12400     12400     12401     12400     12402     12400     12403
     12403     12404     12403     12405     12403     12406     12354     12355
     12355     12357     12355     12356     12357     12358     12357     12359
     12357     12407     12407     12408     12407     12409     12407     12410
     12410     12411     12410     12412     12410     12413     12413     12414
     12413     12415     12413     12416     12416     12417     12416     12418
     12416     12419     12419     12420     12419     12421     12419     12422
     12422     12423     12422     12424     12422     12425     12425     12426
     12425     12427     12425     12428     12428     12429     12428     12430
     12428     12431     12431     12432     12431     12433     12431     12434
     12434     12435     12434     12436     12434     12437     12437     12438
     12437     12439     12437     12440     12440     12441     12440     12442
     12440     12443     12443     12444     12443     12445     12443     12446
     12446     12447     12446     12448     12446     12449     12450     12451
     12450     12452     12450     12453     12450     12454     12458     12456
     12456     12454     12456     12457     12454     12455     12454     12459
     12467     12466     12459     12460     12459     12461     12459     12465
     12465     12462     12462     12466     12462     12463     12462     12464
     12467     12468     12467     12469     12467     12470     12470     12471
     12470     12478     12470     12472     12478     12479     12478     12480
     12478     12481     12472     12473     12473     12475     12473     12474
     12475     12476     12475     12477     12475     12487     12487     12488
     12487     12489     12487     12490     12490     12491     12490     12492
     12490     12493     12493     12494     12493     12495     12493     12496
     12496     12497     12496     12498     12496     12499     12499     12500
     12499     12501     12499     12502     12502     12503     12502     12504
     12502     12505     12505     12506     12505     12507     12507     12508
     12507     12509     12509     12510     12509     12511     12509     12512
     12512     12513     12512     12514     12512     12515     12515     12516
     12515     12517     12515     12518     12518     12519     12518     12520
     12518     12521     12521     12522     12521     12523     12521     12524
     12524     12525     12524     12526     12524     12527     12527     12528
     12527     12529     12527     12530     12530     12531     12530     12532
     12530     12533     12481     12482     12482     12484     12482     12483
     12484     12485     12484     12486     12484     12534     12534     12535
     12534     12536     12534     12537     12537     12538     12537     12539
     12537     12540     12540     12541     12540     12542     12540     12543
     12543     12544     12543     12545     12543     12546     12546     12547
     12546     12548     12546     12549     12549     12550     12549     12551
     12549     12552     12552     12553     12552     12554     12552     12555
     12555     12556     12555     12557     12555     12558     12558     12559
     12558     12560     12558     12561     12561     12562     12561     12563
     12561     12564     12564     12565     12564     12566     12564     12567
     12567     12568     12567     12569     12567     12570     12570     12571
     12570     12572     12570     12573     12573     12574     12573     12575
     12573     12576     12577     12581     12577     12585     12577     12589
     12581     12582     12581     12583     12581     12584     12585     12586
     12585     12587     12585     12588     12589     12590     12589     12591
     12589     12592     12577     12578     12578     12579     12578     12580
     12578     12593     12593     12594     12593     12595     12593     12599
     12600     12601     12599     12596     12596     12600     12596     12597
     12596     12598     12601     12602     12601     12603     12601     12604
     12604     12605     12604     12612     12604     12606     12612     12613
     12612     12614     12612     12615     12606     12607     12607     12609
     12607     12608     12609     12610     12609     12611     12609     12621
     12621     12622     12621     12623     12621     12624     12624     12625
     12624     12626     12624     12627     12627     12628     12627     12629
     12627     12630     12630     12631     12630     12632     12630     12633
     12633     12634     12633     12635     12633     12636     12636     12637
     12636     12638     12636     12639     12639     12640     12639     12641
     12641     12642     12641     12643     12643     12644     12643     12645
     12643     12646     12646     12647     12646     12648     12646     12649
     12649     12650     12649     12651     12649     12652     12652     12653
     12652     12654     12652     12655     12655     12656     12655     12657
     12655     12658     12658     12659     12658     12660     12658     12661
     12661     12662     12661     12663     12661     12664     12664     12665
     12664     12666     12664     12667     12615     12616     12616     12618
     12616     12617     12618     12619     12618     12620     12618     12668
     12668     12669     12668     12670     12668     12671     12671     12672
     12671     12673     12671     12674     12674     12675     12674     12676
     12674     12677     12677     12678     12677     12679     12677     12680
     12680     12681     12680     12682     12680     12683     12683     12684
     12683     12685     12683     12686     12686     12687     12686     12688
     12686     12689     12689     12690     12689     12691     12689     12692
     12692     12693     12692     12694     12692     12695     12695     12696
     12695     12697     12695     12698     12698     12699     12698     12700
     12698     12701     12701     12702     12701     12703     12701     12704
     12704     12705     12704     12706     12704     12707     12707     12708
     12707     12709     12707     12710     12711     12715     12711     12719
     12711     12723     12715     12716     12715     12717     12715     12718
     12719     12720     12719     12721     12719     12722     12723     12724
     12723     12725     12723     12726     12711     12712     12712     12713
     12712     12714     12712     12727     12727     12728     12727     12729
     12727     12733     12734     12735     12733     12730     12730     12734
     12730     12731     12730     12732     12735     12736     12735     12737
     12735     12738     12738     12739     12738     12746     12738     12740
     12746     12747     12746     12748     12746     12749     12740     12741
     12741     12743     12741     12742     12743     12744     12743     12745
     12743     12755     12755     12756     12755     12757     12755     12758
     12758     12759     12758     12760     12758     12761     12761     12762
     12761     12763     12761     12764     12764     12765     12764     12766
     12764     12767     12767     12768     12767     12769     12767     12770
     12770     12771     12770     12772     12770     12773     12773     12774
     12773     12775     12775     12776     12775     12777     12777     12778
     12777     12779     12777     12780     12780     12781     12780     12782
     12780     12783     12783     12784     12783     12785     12783     12786
     12786     12787     12786     12788     12786     12789     12789     12790
     12789     12791     12789     12792     12792     12793     12792     12794
     12792     12795     12795     12796     12795     12797     12795     12798
     12798     12799     12798     12800     12798     12801     12749     12750
     12750     12752     12750     12751     12752     12753     12752     12754
     12752     12802     12802     12803     12802     12804     12802     12805
     12805     12806     12805     12807     12805     12808     12808     12809
     12808     12810     12808     12811     12811     12812     12811     12813
     12811     12814     12814     12815     12814     12816     12814     12817
     12817     12818     12817     12819     12817     12820     12820     12821
     12820     12822     12820     12823     12823     12824     12823     12825
     12823     12826     12826     12827     12826     12828     12826     12829
     12829     12830     12829     12831     12829     12832     12832     12833
     12832     12834     12832     12835     12835     12836     12835     12837
     12835     12838     12838     12839     12838     12840     12838     12841
     12841     12842     12841     12843     12841     12844     12845     12849
     12845     12853     12845     12857     12849     12850     12849     12851
     12849     12852     12853     12854     12853     12855     12853     12856
     12857     12858     12857     12859     12857     12860     12845     12846
     12846     12847     12846     12848     12846     12861     12861     12862
     12861     12863     12861     12867     12868     12869     12867     12864
     12864     12868     12864     12865     12864     12866     12869     12870
     12869     12871     12869     12872     12872     12873     12872     12880
     12872     12874     12880     12881     12880     12882     12880     12883
     12874     12875     12875     12877     12875     12876     12877     12878
     12877     12879     12877     12889     12889     12890     12889     12891
     12889     12892     12892     12893     12892     12894     12892     12895
     12895     12896     12895     12897     12895     12898     12898     12899
     12898     12900     12898     12901     12901     12902     12901     12903
     12901     12904     12904     12905     12904     12906     12904     12907
     12907     12908     12907     12909     12909     12910     12909     12911
     12911     12912     12911     12913     12911     12914     12914     12915
     12914     12916     12914     12917     12917     12918     12917     12919
     12917     12920     12920     12921     12920     12922     12920     12923
     12923     12924     12923     12925     12923     12926     12926     12927
     12926     12928     12926     12929     12929     12930     12929     12931
     12929     12932     12932     12933     12932     12934     12932     12935
     12883     12884     12884     12886     12884     12885     12886     12887
     12886     12888     12886     12936     12936     12937     12936     12938
     12936     12939     12939     12940     12939     12941     12939     12942
     12942     12943     12942     12944     12942     12945     12945     12946
     12945     12947     12945     12948     12948     12949     12948     12950
     12948     12951     12951     12952     12951     12953     12951     12954
     12954     12955     12954     12956     12954     12957     12957     12958
     12957     12959     12957     12960     12960     12961     12960     12962
     12960     12963     12963     12964     12963     12965     12963     12966
     12966     12967     12966     12968     12966     12969     12969     12970
     12969     12971     12969     12972     12972     12973     12972     12974
     12972     12975     12975     12976     12975     12977     12975     12978
     12979     12983     12979     12987     12979     12991     12983     12984
     12983     12985     12983     12986     12987     12988     12987     12989
     12987     12990     12991     12992     12991     12993     12991     12994
     12979     12980     12980     12981     12980     12982     12980     12995
     12995     12996     12995     12997     12995     13001     13002     13003
     13001     12998     12998     13002     12998     12999     12998     13000
     13003     13004     13003     13005     13003     13006     13006     13007
     13006     13014     13006     13008     13014     13015     13014     13016
     13014     13017     13008     13009     13009     13011     13009     13010
     13011     13012     13011     13013     13011     13023     13023     13024
     13023     13025     13023     13026     13026     13027     13026     13028
     13026     13029     13029     13030     13029     13031     13029     13032
     13032     13033     13032     13034     13032     13035     13035     13036
     13035     13037     13035     13038     13038     13039     13038     13040
     13038     13041     13041     13042     13041     13043     13043     13044
     13043     13045     13045     13046     13045     13047     13045     13048
     13048     13049     13048     13050     13048     13051     13051     13052
     13051     13053     13051     13054     13054     13055     13054     13056
     13054     13057     13057     13058     13057     13059     13057     13060
     13060     13061     13060     13062     13060     13063     13063     13064
     13063     13065     13063     13066     13066     13067     13066     13068
     13066     13069     13017     13018     13018     13020     13018     13019
     13020     13021     13020     13022     13020     13070     13070     13071
     13070     13072     13070     13073     13073     13074     13073     13075
     13073     13076     13076     13077     13076     13078     13076     13079
     13079     13080     13079     13081     13079     13082     13082     13083
     13082     13084     13082     13085     13085     13086     13085     13087
     13085     13088     13088     13089     13088     13090     13088     13091
     13091     13092     13091     13093     13091     13094     13094     13095
     13094     13096     13094     13097     13097     13098     13097     13099
     13097     13100     13100     13101     13100     13102     13100     13103
     13103     13104     13103     13105     13103     13106     13106     13107
     13106     13108     13106     13109     13109     13110     13109     13111
     13109     13112     13113     13117     13113     13121     13113     13125
     13117     13118     13117     13119     13117     13120     13121     13122
     13121     13123     13121     13124     13125     13126     13125     13127
     13125     13128     13113     13114     13114     13115     13114     13116
     13114     13129     13129     13130     13129     13131     13129     13135
     13136     13137     13135     13132     13132     13136     13132     13133
     13132     13134     13137     13138     13137     13139     13137     13140
     13140     13141     13140     13148     13140     13142     13148     13149
     13148     13150     13148     13151     13142     13143     13143     13145
     13143     13144     13145     13146     13145     13147     13145     13157
     13157     13158     13157     13159     13157     13160     13160     13161
     13160     13162     13160     13163     13163     13164     13163     13165
     13163     13166     13166     13167     13166     13168     13166     13169
     13169     13170     13169     13171     13169     13172     13172     13173
     13172     13174     13172     13175     13175     13176     13175     13177
     13177     13178     13177     13179     13179     13180     13179     13181
     13179     13182     13182     13183     13182     13184     13182     13185
     13185     13186     13185     13187     13185     13188     13188     13189
     13188     13190     13188     13191     13191     13192     13191     13193
     13191     13194     13194     13195     13194     13196     13194     13197
     13197     13198     13197     13199     13197     13200     13200     13201
     13200     13202     13200     13203     13151     13152     13152     13154
     13152     13153     13154     13155     13154     13156     13154     13204
     13204     13205     13204     13206     13204     13207     13207     13208
     13207     13209     13207     13210     13210     13211     13210     13212
     13210     13213     13213     13214     13213     13215     13213     13216
     13216     13217     13216     13218     13216     13219     13219     13220
     13219     13221     13219     13222     13222     13223     13222     13224
     13222     13225     13225     13226     13225     13227     13225     13228
     13228     13229     13228     13230     13228     13231     13231     13232
     13231     13233     13231     13234     13234     13235     13234     13236
     13234     13237     13237     13238     13237     13239     13237     13240
     13240     13241     13240     13242     13240     13243     13243     13244
     13243     13245     13243     13246     13247     13251     13247     13255
     13247     13259     13251     13252     13251     13253     13251     13254
     13255     13256     13255     13257     13255     13258     13259     13260
     13259     13261     13259     13262     13247     13248     13248     13249
     13248     13250     13248     13263     13263     13264     13263     13265
     13263     13269     13270     13271     13269     13266     13266     13270
     13266     13267     13266     13268     13271     13272     13271     13273
     13271     13274     13274     13275     13274     13282     13274     13276
     13282     13283     13282     13284     13282     13285     13276     13277
     13277     13279     13277     13278     13279     13280     13279     13281
     13279     13291     13291     13292     13291     13293     13291     13294
     13294     13295     13294     13296     13294     13297     13297     13298
     13297     13299     13297     13300     13300     13301     13300     13302
     13300     13303     13303     13304     13303     13305     13303     13306
     13306     13307     13306     13308     13306     13309     13309     13310
     13309     13311     13311     13312     13311     13313     13313     13314
     13313     13315     13313     13316     13316     13317     13316     13318
     13316     13319     13319     13320     13319     13321     13319     13322
     13322     13323     13322     13324     13322     13325     13325     13326
     13325     13327     13325     13328     13328     13329     13328     13330
     13328     13331     13331     13332     13331     13333     13331     13334
     13334     13335     13334     13336     13334     13337     13285     13286
     13286     13288     13286     13287     13288     13289     13288     13290
     13288     13338     13338     13339     13338     13340     13338     13341
     13341     13342     13341     13343     13341     13344     13344     13345
     13344     13346     13344     13347     13347     13348     13347     13349
     13347     13350     13350     13351     13350     13352     13350     13353
     13353     13354     13353     13355     13353     13356     13356     13357
     13356     13358     13356     13359     13359     13360     13359     13361
     13359     13362     13362     13363     13362     13364     13362     13365
     13365     13366     13365     13367     13365     13368     13368     13369
     13368     13370     13368     13371     13371     13372     13371     13373
     13371     13374     13374     13375     13374     13376     13374     13377
     13377     13378     13377     13379     13377     13380     13381     13385
     13381     13389     13381     13393     13385     13386     13385     13387
     13385     13388     13389     13390     13389     13391     13389     13392
     13393     13394     13393     13395     13393     13396     13381     13382
     13382     13383     13382     13384     13382     13397     13397     13398
     13397     13399     13397     13403     13404     13405     13403     13400
     13400     13404     13400     13401     13400     13402     13405     13406
     13405     13407     13405     13408     13408     13409     13408     13416
     13408     13410     13416     13417     13416     13418     13416     13419
     13410     13411     13411     13413     13411     13412     13413     13414
     13413     13415     13413     13425     13425     13426     13425     13427
     13425     13428     13428     13429     13428     13430     13428     13431
     13431     13432     13431     13433     13431     13434     13434     13435
     13434     13436     13434     13437     13437     13438     13437     13439
     13437     13440     13440     13441     13440     13442     13440     13443
     13443     13444     13443     13445     13445     13446     13445     13447
     13447     13448     13447     13449     13447     13450     13450     13451
     13450     13452     13450     13453     13453     13454     13453     13455
     13453     13456     13456     13457     13456     13458     13456     13459
     13459     13460     13459     13461     13459     13462     13462     13463
     13462     13464     13462     13465     13465     13466     13465     13467
     13465     13468     13468     13469     13468     13470     13468     13471
     13419     13420     13420     13422     13420     13421     13422     13423
     13422     13424     13422     13472     13472     13473     13472     13474
     13472     13475     13475     13476     13475     13477     13475     13478
     13478     13479     13478     13480     13478     13481     13481     13482
     13481     13483     13481     13484     13484     13485     13484     13486
     13484     13487     13487     13488     13487     13489     13487     13490
     13490     13491     13490     13492     13490     13493     13493     13494
     13493     13495     13493     13496     13496     13497     13496     13498
     13496     13499     13499     13500     13499     13501     13499     13502
     13502     13503     13502     13504     13502     13505     13505     13506
     13505     13507     13505     13508     13508     13509     13508     13510
     13508     13511     13511     13512     13511     13513     13511     13514
     13515     13519     13515     13523     13515     13527     13519     13520
     13519     13521     13519     13522     13523     13524     13523     13525
     13523     13526     13527     13528     13527     13529     13527     13530
     13515     13516     13516     13517     13516     13518     13516     13531
     13531     13532     13531     13533     13531     13537     13538     13539
     13537     13534     13534     13538     13534     13535     13534     13536
     13539     13540     13539     13541     13539     13542     13542     13543
     13542     13550     13542     13544     13550     13551     13550     13552
     13550     13553     13544     13545     13545     13547     13545     13546
     13547     13548     13547     13549     13547     13559     13559     13560
     13559     13561     13559     13562     13562     13563     13562     13564
     13562     13565     13565     13566     13565     13567     13565     13568
     13568     13569     13568     13570     13568     13571     13571     13572
     13571     13573     13571     13574     13574     13575     13574     13576
     13574     13577     13577     13578     13577     13579     13579     13580
     13579     13581     13581     13582     13581     13583     13581     13584
     13584     13585     13584     13586     13584     13587     13587     13588
     13587     13589     13587     13590     13590     13591     13590     13592
     13590     13593     13593     13594     13593     13595     13593     13596
     13596     13597     13596     13598     13596     13599     13599     13600
     13599     13601     13599     13602     13602     13603     13602     13604
     13602     13605     13553     13554     13554     13556     13554     13555
     13556     13557     13556     13558     13556     13606     13606     13607
     13606     13608     13606     13609     13609     13610     13609     13611
     13609     13612     13612     13613     13612     13614     13612     13615
     13615     13616     13615     13617     13615     13618     13618     13619
     13618     13620     13618     13621     13621     13622     13621     13623
     13621     13624     13624     13625     13624     13626     13624     13627
     13627     13628     13627     13629     13627     13630     13630     13631
     13630     13632     13630     13633     13633     13634     13633     13635
     13633     13636     13636     13637     13636     13638     13636     13639
     13639     13640     13639     13641     13639     13642     13642     13643
     13642     13644     13642     13645     13645     13646     13645     13647
     13645     13648     13649     13653     13649     13657     13649     13661
     13653     13654     13653     13655     13653     13656     13657     13658
     13657     13659     13657     13660     13661     13662     13661     13663
     13661     13664     13649     13650     13650     13651     13650     13652
     13650     13665     13665     13666     13665     13667     13665     13671
     13672     13673     13671     13668     13668     13672     13668     13669
     13668     13670     13673     13674     13673     13675     13673     13676
     13676     13677     13676     13684     13676     13678     13684     13685
     13684     13686     13684     13687     13678     13679     13679     13681
     13679     13680     13681     13682     13681     13683     13681     13693
     13693     13694     13693     13695     13693     13696     13696     13697
     13696     13698     13696     13699     13699     13700     13699     13701
     13699     13702     13702     13703     13702     13704     13702     13705
     13705     13706     13705     13707     13705     13708     13708     13709
     13708     13710     13708     13711     13711     13712     13711     13713
     13713     13714     13713     13715     13715     13716     13715     13717
     13715     13718     13718     13719     13718     13720     13718     13721
     13721     13722     13721     13723     13721     13724     13724     13725
     13724     13726     13724     13727     13727     13728     13727     13729
     13727     13730     13730     13731     13730     13732     13730     13733
     13733     13734     13733     13735     13733     13736     13736     13737
     13736     13738     13736     13739     13687     13688     13688     13690
     13688     13689     13690     13691     13690     13692     13690     13740
     13740     13741     13740     13742     13740     13743     13743     13744
     13743     13745     13743     13746     13746     13747     13746     13748
     13746     13749     13749     13750     13749     13751     13749     13752
     13752     13753     13752     13754     13752     13755     13755     13756
     13755     13757     13755     13758     13758     13759     13758     13760
     13758     13761     13761     13762     13761     13763     13761     13764
     13764     13765     13764     13766     13764     13767     13767     13768
     13767     13769     13767     13770     13770     13771     13770     13772
     13770     13773     13773     13774     13773     13775     13773     13776
     13776     13777     13776     13778     13776     13779     13779     13780
     13779     13781     13779     13782     13783     13787     13783     13791
     13783     13795     13787     13788     13787     13789     13787     13790
     13791     13792     13791     13793     13791     13794     13795     13796
     13795     13797     13795     13798     13783     13784     13784     13785
     13784     13786     13784     13799     13799     13800     13799     13801
     13799     13805     13806     13807     13805     13802     13802     13806
     13802     13803     13802     13804     13807     13808     13807     13809
     13807     13810     13810     13811     13810     13818     13810     13812
     13818     13819     13818     13820     13818     13821     13812     13813
     13813     13815     13813     13814     13815     13816     13815     13817
     13815     13827     13827     13828     13827     13829     13827     13830
     13830     13831     13830     13832     13830     13833     13833     13834
     13833     13835     13833     13836     13836     13837     13836     13838
     13836     13839     13839     13840     13839     13841     13839     13842
     13842     13843     13842     13844     13842     13845     13845     13846
     13845     13847     13847     13848     13847     13849     13849     13850
     13849     13851     13849     13852     13852     13853     13852     13854
     13852     13855     13855     13856     13855     13857     13855     13858
     13858     13859     13858     13860     13858     13861     13861     13862
     13861     13863     13861     13864     13864     13865     13864     13866
     13864     13867     13867     13868     13867     13869     13867     13870
     13870     13871     13870     13872     13870     13873     13821     13822
     13822     13824     13822     13823     13824     13825     13824     13826
     13824     13874     13874     13875     13874     13876     13874     13877
     13877     13878     13877     13879     13877     13880     13880     13881
     13880     13882     13880     13883     13883     13884     13883     13885
     13883     13886     13886     13887     13886     13888     13886     13889
     13889     13890     13889     13891     13889     13892     13892     13893
     13892     13894     13892     13895     13895     13896     13895     13897
     13895     13898     13898     13899     13898     13900     13898     13901
     13901     13902     13901     13903     13901     13904     13904     13905
     13904     13906     13904     13907     13907     13908     13907     13909
     13907     13910     13910     13911     13910     13912     13910     13913
     13913     13914     13913     13915     13913     13916     13917     13921
     13917     13925     13917     13929     13921     13922     13921     13923
     13921     13924     13925     13926     13925     13927     13925     13928
     13929     13930     13929     13931     13929     13932     13917     13918
     13918     13919     13918     13920     13918     13933     13933     13934
     13933     13935     13933     13939     13940     13941     13939     13936
     13936     13940     13936     13937     13936     13938     13941     13942
     13941     13943     13941     13944     13944     13945     13944     13952
     13944     13946     13952     13953     13952     13954     13952     13955
     13946     13947     13947     13949     13947     13948     13949     13950
     13949     13951     13949     13961     13961     13962     13961     13963
     13961     13964     13964     13965     13964     13966     13964     13967
     13967     13968     13967     13969     13967     13970     13970     13971
     13970     13972     13970     13973     13973     13974     13973     13975
     13973     13976     13976     13977     13976     13978     13976     13979
     13979     13980     13979     13981     13981     13982     13981     13983
     13983     13984     13983     13985     13983     13986     13986     13987
     13986     13988     13986     13989     13989     13990     13989     13991
     13989     13992     13992     13993     13992     13994     13992     13995
     13995     13996     13995     13997     13995     13998     13998     13999
     13998     14000     13998     14001     14001     14002     14001     14003
     14001     14004     14004     14005     14004     14006     14004     14007
     13955     13956     13956     13958     13956     13957     13958     13959
     13958     13960     13958     14008     14008     14009     14008     14010
     14008     14011     14011     14012     14011     14013     14011     14014
     14014     14015     14014     14016     14014     14017     14017     14018
     14017     14019     14017     14020     14020     14021     14020     14022
     14020     14023     14023     14024     14023     14025     14023     14026
     14026     14027     14026     14028     14026     14029     14029     14030
     14029     14031     14029     14032     14032     14033     14032     14034
     14032     14035     14035     14036     14035     14037     14035     14038
     14038     14039     14038     14040     14038     14041     14041     14042
     14041     14043     14041     14044     14044     14045     14044     14046
     14044     14047     14047     14048     14047     14049     14047     14050
     14051     14055     14051     14059     14051     14063     14055     14056
     14055     14057     14055     14058     14059     14060     14059     14061
     14059     14062     14063     14064     14063     14065     14063     14066
     14051     14052     14052     14053     14052     14054     14052     14067
     14067     14068     14067     14069     14067     14073     14074     14075
     14073     14070     14070     14074     14070     14071     14070     14072
     14075     14076     14075     14077     14075     14078     14078     14079
     14078     14086     14078     14080     14086     14087     14086     14088
     14086     14089     14080     14081     14081     14083     14081     14082
     14083     14084     14083     14085     14083     14095     14095     14096
     14095     14097     14095     14098     14098     14099     14098     14100
     14098     14101     14101     14102     14101     14103     14101     14104
     14104     14105     14104     14106     14104     14107     14107     14108
     14107     14109     14107     14110     14110     14111     14110     14112
     14110     14113     14113     14114     14113     14115     14115     14116
     14115     14117     14117     14118     14117     14119     14117     14120
     14120     14121     14120     14122     14120     14123     14123     14124
     14123     14125     14123     14126     14126     14127     14126     14128
     14126     14129     14129     14130     14129     14131     14129     14132
     14132     14133     14132     14134     14132     14135     14135     14136
     14135     14137     14135     14138     14138     14139     14138     14140
     14138     14141     14089     14090     14090     14092     14090     14091
     14092     14093     14092     14094     14092     14142     14142     14143
     14142     14144     14142     14145     14145     14146     14145     14147
     14145     14148     14148     14149     14148     14150     14148     14151
     14151     14152     14151     14153     14151     14154     14154     14155
     14154     14156     14154     14157     14157     14158     14157     14159
     14157     14160     14160     14161     14160     14162     14160     14163
     14163     14164     14163     14165     14163     14166     14166     14167
     14166     14168     14166     14169     14169     14170     14169     14171
     14169     14172     14172     14173     14172     14174     14172     14175
     14175     14176     14175     14177     14175     14178     14178     14179
     14178     14180     14178     14181     14181     14182     14181     14183
     14181     14184     14185     14189     14185     14193     14185     14197
     14189     14190     14189     14191     14189     14192     14193     14194
     14193     14195     14193     14196     14197     14198     14197     14199
     14197     14200     14185     14186     14186     14187     14186     14188
     14186     14201     14201     14202     14201     14203     14201     14207
     14208     14209     14207     14204     14204     14208     14204     14205
     14204     14206     14209     14210     14209     14211     14209     14212
     14212     14213     14212     14220     14212     14214     14220     14221
     14220     14222     14220     14223     14214     14215     14215     14217
     14215     14216     14217     14218     14217     14219     14217     14229
     14229     14230     14229     14231     14229     14232     14232     14233
     14232     14234     14232     14235     14235     14236     14235     14237
     14235     14238     14238     14239     14238     14240     14238     14241
     14241     14242     14241     14243     14241     14244     14244     14245
     14244     14246     14244     14247     14247     14248     14247     14249
     14249     14250     14249     14251     14251     14252     14251     14253
     14251     14254     14254     14255     14254     14256     14254     14257
     14257     14258     14257     14259     14257     14260     14260     14261
     14260     14262     14260     14263     14263     14264     14263     14265
     14263     14266     14266     14267     14266     14268     14266     14269
     14269     14270     14269     14271     14269     14272     14272     14273
     14272     14274     14272     14275     14223     14224     14224     14226
     14224     14225     14226     14227     14226     14228     14226     14276
     14276     14277     14276     14278     14276     14279     14279     14280
     14279     14281     14279     14282     14282     14283     14282     14284
     14282     14285     14285     14286     14285     14287     14285     14288
     14288     14289     14288     14290     14288     14291     14291     14292
     14291     14293     14291     14294     14294     14295     14294     14296
     14294     14297     14297     14298     14297     14299     14297     14300
     14300     14301     14300     14302     14300     14303     14303     14304
     14303     14305     14303     14306     14306     14307     14306     14308
     14306     14309     14309     14310     14309     14311     14309     14312
     14312     14313     14312     14314     14312     14315     14315     14316
     14315     14317     14315     14318     14319     14323     14319     14327
     14319     14331     14323     14324     14323     14325     14323     14326
     14327     14328     14327     14329     14327     14330     14331     14332
     14331     14333     14331     14334     14319     14320     14320     14321
     14320     14322     14320     14335     14335     14336     14335     14337
     14335     14341     14342     14343     14341     14338     14338     14342
     14338     14339     14338     14340     14343     14344     14343     14345
     14343     14346     14346     14347     14346     14354     14346     14348
     14354     14355     14354     14356     14354     14357     14348     14349
     14349     14351     14349     14350     14351     14352     14351     14353
     14351     14363     14363     14364     14363     14365     14363     14366
     14366     14367     14366     14368     14366     14369     14369     14370
     14369     14371     14369     14372     14372     14373     14372     14374
     14372     14375     14375     14376     14375     14377     14375     14378
     14378     14379     14378     14380     14378     14381     14381     14382
     14381     14383     14383     14384     14383     14385     14385     14386
     14385     14387     14385     14388     14388     14389     14388     14390
     14388     14391     14391     14392     14391     14393     14391     14394
     14394     14395     14394     14396     14394     14397     14397     14398
     14397     14399     14397     14400     14400     14401     14400     14402
     14400     14403     14403     14404     14403     14405     14403     14406
     14406     14407     14406     14408     14406     14409     14357     14358
     14358     14360     14358     14359     14360     14361     14360     14362
     14360     14410     14410     14411     14410     14412     14410     14413
     14413     14414     14413     14415     14413     14416     14416     14417
     14416     14418     14416     14419     14419     14420     14419     14421
     14419     14422     14422     14423     14422     14424     14422     14425
     14425     14426     14425     14427     14425     14428     14428     14429
     14428     14430     14428     14431     14431     14432     14431     14433
     14431     14434     14434     14435     14434     14436     14434     14437
     14437     14438     14437     14439     14437     14440     14440     14441
     14440     14442     14440     14443     14443     14444     14443     14445
     14443     14446     14446     14447     14446     14448     14446     14449
     14449     14450     14449     14451     14449     14452     14453     14457
     14453     14461     14453     14465     14457     14458     14457     14459
     14457     14460     14461     14462     14461     14463     14461     14464
     14465     14466     14465     14467     14465     14468     14453     14454
     14454     14455     14454     14456     14454     14469     14469     14470
     14469     14471     14469     14475     14476     14477     14475     14472
     14472     14476     14472     14473     14472     14474     14477     14478
     14477     14479     14477     14480     14480     14481     14480     14488
     14480     14482     14488     14489     14488     14490     14488     14491
     14482     14483     14483     14485     14483     14484     14485     14486
     14485     14487     14485     14497     14497     14498     14497     14499
     14497     14500     14500     14501     14500     14502     14500     14503
     14503     14504     14503     14505     14503     14506     14506     14507
     14506     14508     14506     14509     14509     14510     14509     14511
     14509     14512     14512     14513     14512     14514     14512     14515
     14515     14516     14515     14517     14517     14518     14517     14519
     14519     14520     14519     14521     14519     14522     14522     14523
     14522     14524     14522     14525     14525     14526     14525     14527
     14525     14528     14528     14529     14528     14530     14528     14531
     14531     14532     14531     14533     14531     14534     14534     14535
     14534     14536     14534     14537     14537     14538     14537     14539
     14537     14540     14540     14541     14540     14542     14540     14543
     14491     14492     14492     14494     14492     14493     14494     14495
     14494     14496     14494     14544     14544     14545     14544     14546
     14544     14547     14547     14548     14547     14549     14547     14550
     14550     14551     14550     14552     14550     14553     14553     14554
     14553     14555     14553     14556     14556     14557     14556     14558
     14556     14559     14559     14560     14559     14561     14559     14562
     14562     14563     14562     14564     14562     14565     14565     14566
     14565     14567     14565     14568     14568     14569     14568     14570
     14568     14571     14571     14572     14571     14573     14571     14574
     14574     14575     14574     14576     14574     14577     14577     14578
     14577     14579     14577     14580     14580     14581     14580     14582
     14580     14583     14583     14584     14583     14585     14583     14586
     14587     14591     14587     14595     14587     14599     14591     14592
     14591     14593     14591     14594     14595     14596     14595     14597
     14595     14598     14599     14600     14599     14601     14599     14602
     14587     14588     14588     14589     14588     14590     14588     14603
     14603     14604     14603     14605     14603     14609     14610     14611
     14609     14606     14606     14610     14606     14607     14606     14608
     14611     14612     14611     14613     14611     14614     14614     14615
     14614     14622     14614     14616     14622     14623     14622     14624
     14622     14625     14616     14617     14617     14619     14617     14618
     14619     14620     14619     14621     14619     14631     14631     14632
     14631     14633     14631     14634     14634     14635     14634     14636
     14634     14637     14637     14638     14637     14639     14637     14640
     14640     14641     14640     14642     14640     14643     14643     14644
     14643     14645     14643     14646     14646     14647     14646     14648
     14646     14649     14649     14650     14649     14651     14651     14652
     14651     14653     14653     14654     14653     14655     14653     14656
     14656     14657     14656     14658     14656     14659     14659     14660
     14659     14661     14659     14662     14662     14663     14662     14664
     14662     14665     14665     14666     14665     14667     14665     14668
     14668     14669     14668     14670     14668     14671     14671     14672
     14671     14673     14671     14674     14674     14675     14674     14676
     14674     14677     14625     14626     14626     14628     14626     14627
     14628     14629     14628     14630     14628     14678     14678     14679
     14678     14680     14678     14681     14681     14682     14681     14683
     14681     14684     14684     14685     14684     14686     14684     14687
     14687     14688     14687     14689     14687     14690     14690     14691
     14690     14692     14690     14693     14693     14694     14693     14695
     14693     14696     14696     14697     14696     14698     14696     14699
     14699     14700     14699     14701     14699     14702     14702     14703
     14702     14704     14702     14705     14705     14706     14705     14707
     14705     14708     14708     14709     14708     14710     14708     14711
     14711     14712     14711     14713     14711     14714     14714     14715
     14714     14716     14714     14717     14717     14718     14717     14719
     14717     14720     14721     14725     14721     14729     14721     14733
     14725     14726     14725     14727     14725     14728     14729     14730
     14729     14731     14729     14732     14733     14734     14733     14735
     14733     14736     14721     14722     14722     14723     14722     14724
     14722     14737     14737     14738     14737     14739     14737     14743
     14744     14745     14743     14740     14740     14744     14740     14741
     14740     14742     14745     14746     14745     14747     14745     14748
     14748     14749     14748     14756     14748     14750     14756     14757
     14756     14758     14756     14759     14750     14751     14751     14753
     14751     14752     14753     14754     14753     14755     14753     14765
     14765     14766     14765     14767     14765     14768     14768     14769
     14768     14770     14768     14771     14771     14772     14771     14773
     14771     14774     14774     14775     14774     14776     14774     14777
     14777     14778     14777     14779     14777     14780     14780     14781
     14780     14782     14780     14783     14783     14784     14783     14785
     14785     14786     14785     14787     14787     14788     14787     14789
     14787     14790     14790     14791     14790     14792     14790     14793
     14793     14794     14793     14795     14793     14796     14796     14797
     14796     14798     14796     14799     14799     14800     14799     14801
     14799     14802     14802     14803     14802     14804     14802     14805
     14805     14806     14805     14807     14805     14808     14808     14809
     14808     14810     14808     14811     14759     14760     14760     14762
     14760     14761     14762     14763     14762     14764     14762     14812
     14812     14813     14812     14814     14812     14815     14815     14816
     14815     14817     14815     14818     14818     14819     14818     14820
     14818     14821     14821     14822     14821     14823     14821     14824
     14824     14825     14824     14826     14824     14827     14827     14828
     14827     14829     14827     14830     14830     14831     14830     14832
     14830     14833     14833     14834     14833     14835     14833     14836
     14836     14837     14836     14838     14836     14839     14839     14840
     14839     14841     14839     14842     14842     14843     14842     14844
     14842     14845     14845     14846     14845     14847     14845     14848
     14848     14849     14848     14850     14848     14851     14851     14852
     14851     14853     14851     14854     14855     14856     14855     14857
     14855     14858     14855     14859     14863     14861     14861     14859
     14861     14862     14859     14860     14859     14864     14872     14871
     14864     14865     14864     14866     14864     14870     14870     14867
     14867     14871     14867     14868     14867     14869     14872     14873
     14872     14874     14872     14875     14875     14876     14875     14883
     14875     14877     14883     14884     14883     14885     14883     14886
     14877     14878     14878     14880     14878     14879     14880     14881
     14880     14882     14880     14892     14892     14893     14892     14894
     14892     14895     14895     14896     14895     14897     14895     14898
     14898     14899     14898     14900     14898     14901     14901     14902
     14901     14903     14901     14904     14904     14905     14904     14906
     14904     14907     14907     14908     14907     14909     14907     14910
     14910     14911     14910     14912     14912     14913     14912     14914
     14914     14915     14914     14916     14914     14917     14917     14918
     14917     14919     14917     14920     14920     14921     14920     14922
     14920     14923     14923     14924     14923     14925     14923     14926
     14926     14927     14926     14928     14926     14929     14929     14930
     14929     14931     14929     14932     14932     14933     14932     14934
     14932     14935     14935     14936     14935     14937     14935     14938
     14886     14887     14887     14889     14887     14888     14889     14890
     14889     14891     14889     14939     14939     14940     14939     14941
     14939     14942     14942     14943     14942     14944     14942     14945
     14945     14946     14945     14947     14945     14948     14948     14949
     14948     14950     14948     14951     14951     14952     14951     14953
     14951     14954     14954     14955     14954     14956     14954     14957
     14957     14958     14957     14959     14957     14960     14960     14961
     14960     14962     14960     14963     14963     14964     14963     14965
     14963     14966     14966     14967     14966     14968     14966     14969
     14969     14970     14969     14971     14969     14972     14972     14973
     14972     14974     14972     14975     14975     14976     14975     14977
     14975     14978     14978     14979     14978     14980     14978     14981
     14982     14986     14982     14990     14982     14994     14986     14987
     14986     14988     14986     14989     14990     14991     14990     14992
     14990     14993     14994     14995     14994     14996     14994     14997
     14982     14983     14983     14984     14983     14985     14983     14998
     14998     14999     14998     15000     14998     15004     15005     15006
     15004     15001     15001     15005     15001     15002     15001     15003
     15006     15007     15006     15008     15006     15009     15009     15010
     15009     15017     15009     15011     15017     15018     15017     15019
     15017     15020     15011     15012     15012     15014     15012     15013
     15014     15015     15014     15016     15014     15026     15026     15027
     15026     15028     15026     15029     15029     15030     15029     15031
     15029     15032     15032     15033     15032     15034     15032     15035
     15035     15036     15035     15037     15035     15038     15038     15039
     15038     15040     15038     15041     15041     15042     15041     15043
     15041     15044     15044     15045     15044     15046     15046     15047
     15046     15048     15048     15049     15048     15050     15048     15051
     15051     15052     15051     15053     15051     15054     15054     15055
     15054     15056     15054     15057     15057     15058     15057     15059
     15057     15060     15060     15061     15060     15062     15060     15063
     15063     15064     15063     15065     15063     15066     15066     15067
     15066     15068     15066     15069     15069     15070     15069     15071
     15069     15072     15020     15021     15021     15023     15021     15022
     15023     15024     15023     15025     15023     15073     15073     15074
     15073     15075     15073     15076     15076     15077     15076     15078
     15076     15079     15079     15080     15079     15081     15079     15082
     15082     15083     15082     15084     15082     15085     15085     15086
     15085     15087     15085     15088     15088     15089     15088     15090
     15088     15091     15091     15092     15091     15093     15091     15094
     15094     15095     15094     15096     15094     15097     15097     15098
     15097     15099     15097     15100     15100     15101     15100     15102
     15100     15103     15103     15104     15103     15105     15103     15106
     15106     15107     15106     15108     15106     15109     15109     15110
     15109     15111     15109     15112     15112     15113     15112     15114
     15112     15115     15116     15120     15116     15124     15116     15128
     15120     15121     15120     15122     15120     15123     15124     15125
     15124     15126     15124     15127     15128     15129     15128     15130
     15128     15131     15116     15117     15117     15118     15117     15119
     15117     15132     15132     15133     15132     15134     15132     15138
     15139     15140     15138     15135     15135     15139     15135     15136
     15135     15137     15140     15141     15140     15142     15140     15143
     15143     15144     15143     15151     15143     15145     15151     15152
     15151     15153     15151     15154     15145     15146     15146     15148
     15146     15147     15148     15149     15148     15150     15148     15160
     15160     15161     15160     15162     15160     15163     15163     15164
     15163     15165     15163     15166     15166     15167     15166     15168
     15166     15169     15169     15170     15169     15171     15169     15172
     15172     15173     15172     15174     15172     15175     15175     15176
     15175     15177     15175     15178     15178     15179     15178     15180
     15180     15181     15180     15182     15182     15183     15182     15184
     15182     15185     15185     15186     15185     15187     15185     15188
     15188     15189     15188     15190     15188     15191     15191     15192
     15191     15193     15191     15194     15194     15195     15194     15196
     15194     15197     15197     15198     15197     15199     15197     15200
     15200     15201     15200     15202     15200     15203     15203     15204
     15203     15205     15203     15206     15154     15155     15155     15157
     15155     15156     15157     15158     15157     15159     15157     15207
     15207     15208     15207     15209     15207     15210     15210     15211
     15210     15212     15210     15213     15213     15214     15213     15215
     15213     15216     15216     15217     15216     15218     15216     15219
     15219     15220     15219     15221     15219     15222     15222     15223
     15222     15224     15222     15225     15225     15226     15225     15227
     15225     15228     15228     15229     15228     15230     15228     15231
     15231     15232     15231     15233     15231     15234     15234     15235
     15234     15236     15234     15237     15237     15238     15237     15239
     15237     15240     15240     15241     15240     15242     15240     15243
     15243     15244     15243     15245     15243     15246     15246     15247
     15246     15248     15246     15249     15250     15254     15250     15258
     15250     15262     15254     15255     15254     15256     15254     15257
     15258     15259     15258     15260     15258     15261     15262     15263
     15262     15264     15262     15265     15250     15251     15251     15252
     15251     15253     15251     15266     15266     15267     15266     15268
     15266     15272     15273     15274     15272     15269     15269     15273
     15269     15270     15269     15271     15274     15275     15274     15276
     15274     15277     15277     15278     15277     15285     15277     15279
     15285     15286     15285     15287     15285     15288     15279     15280
     15280     15282     15280     15281     15282     15283     15282     15284
     15282     15294     15294     15295     15294     15296     15294     15297
     15297     15298     15297     15299     15297     15300     15300     15301
     15300     15302     15300     15303     15303     15304     15303     15305
     15303     15306     15306     15307     15306     15308     15306     15309
     15309     15310     15309     15311     15309     15312     15312     15313
     15312     15314     15314     15315     15314     15316     15316     15317
     15316     15318     15316     15319     15319     15320     15319     15321
     15319     15322     15322     15323     15322     15324     15322     15325
     15325     15326     15325     15327     15325     15328     15328     15329
     15328     15330     15328     15331     15331     15332     15331     15333
     15331     15334     15334     15335     15334     15336     15334     15337
     15337     15338     15337     15339     15337     15340     15288     15289
     15289     15291     15289     15290     15291     15292     15291     15293
     15291     15341     15341     15342     15341     15343     15341     15344
     15344     15345     15344     15346     15344     15347     15347     15348
     15347     15349     15347     15350     15350     15351     15350     15352
     15350     15353     15353     15354     15353     15355     15353     15356
     15356     15357     15356     15358     15356     15359     15359     15360
     15359     15361     15359     15362     15362     15363     15362     15364
     15362     15365     15365     15366     15365     15367     15365     15368
     15368     15369     15368     15370     15368     15371     15371     15372
     15371     15373     15371     15374     15374     15375     15374     15376
     15374     15377     15377     15378     15377     15379     15377     15380
     15380     15381     15380     15382     15380     15383     15384     15388
     15384     15392     15384     15396     15388     15389     15388     15390
     15388     15391     15392     15393     15392     15394     15392     15395
     15396     15397     15396     15398     15396     15399     15384     15385
     15385     15386     15385     15387     15385     15400     15400     15401
     15400     15402     15400     15406     15407     15408     15406     15403
     15403     15407     15403     15404     15403     15405     15408     15409
     15408     15410     15408     15411     15411     15412     15411     15419
     15411     15413     15419     15420     15419     15421     15419     15422
     15413     15414     15414     15416     15414     15415     15416     15417
     15416     15418     15416     15428     15428     15429     15428     15430
     15428     15431     15431     15432     15431     15433     15431     15434
     15434     15435     15434     15436     15434     15437     15437     15438
     15437     15439     15437     15440     15440     15441     15440     15442
     15440     15443     15443     15444     15443     15445     15443     15446
     15446     15447     15446     15448     15448     15449     15448     15450
     15450     15451     15450     15452     15450     15453     15453     15454
     15453     15455     15453     15456     15456     15457     15456     15458
     15456     15459     15459     15460     15459     15461     15459     15462
     15462     15463     15462     15464     15462     15465     15465     15466
     15465     15467     15465     15468     15468     15469     15468     15470
     15468     15471     15471     15472     15471     15473     15471     15474
     15422     15423     15423     15425     15423     15424     15425     15426
     15425     15427     15425     15475     15475     15476     15475     15477
     15475     15478     15478     15479     15478     15480     15478     15481
     15481     15482     15481     15483     15481     15484     15484     15485
     15484     15486     15484     15487     15487     15488     15487     15489
     15487     15490     15490     15491     15490     15492     15490     15493
     15493     15494     15493     15495     15493     15496     15496     15497
     15496     15498     15496     15499     15499     15500     15499     15501
     15499     15502     15502     15503     15502     15504     15502     15505
     15505     15506     15505     15507     15505     15508     15508     15509
     15508     15510     15508     15511     15511     15512     15511     15513
     15511     15514     15514     15515     15514     15516     15514     15517
     15518     15522     15518     15526     15518     15530     15522     15523
     15522     15524     15522     15525     15526     15527     15526     15528
     15526     15529     15530     15531     15530     15532     15530     15533
     15518     15519     15519     15520     15519     15521     15519     15534
     15534     15535     15534     15536     15534     15540     15541     15542
     15540     15537     15537     15541     15537     15538     15537     15539
     15542     15543     15542     15544     15542     15545     15545     15546
     15545     15553     15545     15547     15553     15554     15553     15555
     15553     15556     15547     15548     15548     15550     15548     15549
     15550     15551     15550     15552     15550     15562     15562     15563
     15562     15564     15562     15565     15565     15566     15565     15567
     15565     15568     15568     15569     15568     15570     15568     15571
     15571     15572     15571     15573     15571     15574     15574     15575
     15574     15576     15574     15577     15577     15578     15577     15579
     15577     15580     15580     15581     15580     15582     15582     15583
     15582     15584     15584     15585     15584     15586     15584     15587
     15587     15588     15587     15589     15587     15590     15590     15591
     15590     15592     15590     15593     15593     15594     15593     15595
     15593     15596     15596     15597     15596     15598     15596     15599
     15599     15600     15599     15601     15599     15602     15602     15603
     15602     15604     15602     15605     15605     15606     15605     15607
     15605     15608     15556     15557     15557     15559     15557     15558
     15559     15560     15559     15561     15559     15609     15609     15610
     15609     15611     15609     15612     15612     15613     15612     15614
     15612     15615     15615     15616     15615     15617     15615     15618
     15618     15619     15618     15620     15618     15621     15621     15622
     15621     15623     15621     15624     15624     15625     15624     15626
     15624     15627     15627     15628     15627     15629     15627     15630
     15630     15631     15630     15632     15630     15633     15633     15634
     15633     15635     15633     15636     15636     15637     15636     15638
     15636     15639     15639     15640     15639     15641     15639     15642
     15642     15643     15642     15644     15642     15645     15645     15646
     15645     15647     15645     15648     15648     15649     15648     15650
     15648     15651     15652     15656     15652     15660     15652     15664
     15656     15657     15656     15658     15656     15659     15660     15661
     15660     15662     15660     15663     15664     15665     15664     15666
     15664     15667     15652     15653     15653     15654     15653     15655
     15653     15668     15668     15669     15668     15670     15668     15674
     15675     15676     15674     15671     15671     15675     15671     15672
     15671     15673     15676     15677     15676     15678     15676     15679
     15679     15680     15679     15687     15679     15681     15687     15688
     15687     15689     15687     15690     15681     15682     15682     15684
     15682     15683     15684     15685     15684     15686     15684     15696
     15696     15697     15696     15698     15696     15699     15699     15700
     15699     15701     15699     15702     15702     15703     15702     15704
     15702     15705     15705     15706     15705     15707     15705     15708
     15708     15709     15708     15710     15708     15711     15711     15712
     15711     15713     15711     15714     15714     15715     15714     15716
     15716     15717     15716     15718     15718     15719     15718     15720
     15718     15721     15721     15722     15721     15723     15721     15724
     15724     15725     15724     15726     15724     15727     15727     15728
     15727     15729     15727     15730     15730     15731     15730     15732
     15730     15733     15733     15734     15733     15735     15733     15736
     15736     15737     15736     15738     15736     15739     15739     15740
     15739     15741     15739     15742     15690     15691     15691     15693
     15691     15692     15693     15694     15693     15695     15693     15743
     15743     15744     15743     15745     15743     15746     15746     15747
     15746     15748     15746     15749     15749     15750     15749     15751
     15749     15752     15752     15753     15752     15754     15752     15755
     15755     15756     15755     15757     15755     15758     15758     15759
     15758     15760     15758     15761     15761     15762     15761     15763
     15761     15764     15764     15765     15764     15766     15764     15767
     15767     15768     15767     15769     15767     15770     15770     15771
     15770     15772     15770     15773     15773     15774     15773     15775
     15773     15776     15776     15777     15776     15778     15776     15779
     15779     15780     15779     15781     15779     15782     15782     15783
     15782     15784     15782     15785     15786     15787     15786     15788
     15786     15789     15786     15790     15794     15792     15792     15790
     15792     15793     15790     15791     15790     15795     15803     15802
     15795     15796     15795     15797     15795     15801     15801     15798
     15798     15802     15798     15799     15798     15800     15803     15804
     15803     15805     15803     15806     15806     15807     15806     15814
     15806     15808     15814     15815     15814     15816     15814     15817
     15808     15809     15809     15811     15809     15810     15811     15812
     15811     15813     15811     15823     15823     15824     15823     15825
     15823     15826     15826     15827     15826     15828     15826     15829
     15829     15830     15829     15831     15829     15832     15832     15833
     15832     15834     15832     15835     15835     15836     15835     15837
     15835     15838     15838     15839     15838     15840     15838     15841
     15841     15842     15841     15843     15843     15844     15843     15845
     15845     15846     15845     15847     15845     15848     15848     15849
     15848     15850     15848     15851     15851     15852     15851     15853
     15851     15854     15854     15855     15854     15856     15854     15857
     15857     15858     15857     15859     15857     15860     15860     15861
     15860     15862     15860     15863     15863     15864     15863     15865
     15863     15866     15866     15867     15866     15868     15866     15869
     15817     15818     15818     15820     15818     15819     15820     15821
     15820     15822     15820     15870     15870     15871     15870     15872
     15870     15873     15873     15874     15873     15875     15873     15876
     15876     15877     15876     15878     15876     15879     15879     15880
     15879     15881     15879     15882     15882     15883     15882     15884
     15882     15885     15885     15886     15885     15887     15885     15888
     15888     15889     15888     15890     15888     15891     15891     15892
     15891     15893     15891     15894     15894     15895     15894     15896
     15894     15897     15897     15898     15897     15899     15897     15900
     15900     15901     15900     15902     15900     15903     15903     15904
     15903     15905     15903     15906     15906     15907     15906     15908
     15906     15909     15909     15910     15909     15911     15909     15912
     15913     15917     15913     15921     15913     15925     15917     15918
     15917     15919     15917     15920     15921     15922     15921     15923
     15921     15924     15925     15926     15925     15927     15925     15928
     15913     15914     15914     15915     15914     15916     15914     15929
     15929     15930     15929     15931     15929     15935     15936     15937
     15935     15932     15932     15936     15932     15933     15932     15934
     15937     15938     15937     15939     15937     15940     15940     15941
     15940     15948     15940     15942     15948     15949     15948     15950
     15948     15951     15942     15943     15943     15945     15943     15944
     15945     15946     15945     15947     15945     15957     15957     15958
     15957     15959     15957     15960     15960     15961     15960     15962
     15960     15963     15963     15964     15963     15965     15963     15966
     15966     15967     15966     15968     15966     15969     15969     15970
     15969     15971     15969     15972     15972     15973     15972     15974
     15972     15975     15975     15976     15975     15977     15977     15978
     15977     15979     15979     15980     15979     15981     15979     15982
     15982     15983     15982     15984     15982     15985     15985     15986
     15985     15987     15985     15988     15988     15989     15988     15990
     15988     15991     15991     15992     15991     15993     15991     15994
     15994     15995     15994     15996     15994     15997     15997     15998
     15997     15999     15997     16000     16000     16001     16000     16002
     16000     16003     15951     15952     15952     15954     15952     15953
     15954     15955     15954     15956     15954     16004     16004     16005
     16004     16006     16004     16007     16007     16008     16007     16009
     16007     16010     16010     16011     16010     16012     16010     16013
     16013     16014     16013     16015     16013     16016     16016     16017
     16016     16018     16016     16019     16019     16020     16019     16021
     16019     16022     16022     16023     16022     16024     16022     16025
     16025     16026     16025     16027     16025     16028     16028     16029
     16028     16030     16028     16031     16031     16032     16031     16033
     16031     16034     16034     16035     16034     16036     16034     16037
     16037     16038     16037     16039     16037     16040     16040     16041
     16040     16042     16040     16043     16043     16044     16043     16045
     16043     16046     16047     16051     16047     16055     16047     16059
     16051     16052     16051     16053     16051     16054     16055     16056
     16055     16057     16055     16058     16059     16060     16059     16061
     16059     16062     16047     16048     16048     16049     16048     16050
     16048     16063     16063     16064     16063     16065     16063     16069
     16070     16071     16069     16066     16066     16070     16066     16067
     16066     16068     16071     16072     16071     16073     16071     16074
     16074     16075     16074     16082     16074     16076     16082     16083
     16082     16084     16082     16085     16076     16077     16077     16079
     16077     16078     16079     16080     16079     16081     16079     16091
     16091     16092     16091     16093     16091     16094     16094     16095
     16094     16096     16094     16097     16097     16098     16097     16099
     16097     16100     16100     16101     16100     16102     16100     16103
     16103     16104     16103     16105     16103     16106     16106     16107
     16106     16108     16106     16109     16109     16110     16109     16111
     16111     16112     16111     16113     16113     16114     16113     16115
     16113     16116     16116     16117     16116     16118     16116     16119
     16119     16120     16119     16121     16119     16122     16122     16123
     16122     16124     16122     16125     16125     16126     16125     16127
     16125     16128     16128     16129     16128     16130     16128     16131
     16131     16132     16131     16133     16131     16134     16134     16135
     16134     16136     16134     16137     16085     16086     16086     16088
     16086     16087     16088     16089     16088     16090     16088     16138
     16138     16139     16138     16140     16138     16141     16141     16142
     16141     16143     16141     16144     16144     16145     16144     16146
     16144     16147     16147     16148     16147     16149     16147     16150
     16150     16151     16150     16152     16150     16153     16153     16154
     16153     16155     16153     16156     16156     16157     16156     16158
     16156     16159     16159     16160     16159     16161     16159     16162
     16162     16163     16162     16164     16162     16165     16165     16166
     16165     16167     16165     16168     16168     16169     16168     16170
     16168     16171     16171     16172     16171     16173     16171     16174
     16174     16175     16174     16176     16174     16177     16177     16178
     16177     16179     16177     16180     16181     16182     16181     16183
     16181     16184     16181     16185     16189     16187     16187     16185
     16187     16188     16185     16186     16185     16190     16198     16197
     16190     16191     16190     16192     16190     16196     16196     16193
     16193     16197     16193     16194     16193     16195     16198     16199
     16198     16200     16198     16201     16201     16202     16201     16209
     16201     16203     16209     16210     16209     16211     16209     16212
     16203     16204     16204     16206     16204     16205     16206     16207
     16206     16208     16206     16218     16218     16219     16218     16220
     16218     16221     16221     16222     16221     16223     16221     16224
     16224     16225     16224     16226     16224     16227     16227     16228
     16227     16229     16227     16230     16230     16231     16230     16232
     16230     16233     16233     16234     16233     16235     16233     16236
     16236     16237     16236     16238     16238     16239     16238     16240
     16240     16241     16240     16242     16240     16243     16243     16244
     16243     16245     16243     16246     16246     16247     16246     16248
     16246     16249     16249     16250     16249     16251     16249     16252
     16252     16253     16252     16254     16252     16255     16255     16256
     16255     16257     16255     16258     16258     16259     16258     16260
     16258     16261     16261     16262     16261     16263     16261     16264
     16212     16213     16213     16215     16213     16214     16215     16216
     16215     16217     16215     16265     16265     16266     16265     16267
     16265     16268     16268     16269     16268     16270     16268     16271
     16271     16272     16271     16273     16271     16274     16274     16275
     16274     16276     16274     16277     16277     16278     16277     16279
     16277     16280     16280     16281     16280     16282     16280     16283
     16283     16284     16283     16285     16283     16286     16286     16287
     16286     16288     16286     16289     16289     16290     16289     16291
     16289     16292     16292     16293     16292     16294     16292     16295
     16295     16296     16295     16297     16295     16298     16298     16299
     16298     16300     16298     16301     16301     16302     16301     16303
     16301     16304     16304     16305     16304     16306     16304     16307
     16308     16312     16308     16316     16308     16320     16312     16313
     16312     16314     16312     16315     16316     16317     16316     16318
     16316     16319     16320     16321     16320     16322     16320     16323
     16308     16309     16309     16310     16309     16311     16309     16324
     16324     16325     16324     16326     16324     16330     16331     16332
     16330     16327     16327     16331     16327     16328     16327     16329
     16332     16333     16332     16334     16332     16335     16335     16336
     16335     16343     16335     16337     16343     16344     16343     16345
     16343     16346     16337     16338     16338     16340     16338     16339
     16340     16341     16340     16342     16340     16352     16352     16353
     16352     16354     16352     16355     16355     16356     16355     16357
     16355     16358     16358     16359     16358     16360     16358     16361
     16361     16362     16361     16363     16361     16364     16364     16365
     16364     16366     16364     16367     16367     16368     16367     16369
     16367     16370     16370     16371     16370     16372     16372     16373
     16372     16374     16374     16375     16374     16376     16374     16377
     16377     16378     16377     16379     16377     16380     16380     16381
     16380     16382     16380     16383     16383     16384     16383     16385
     16383     16386     16386     16387     16386     16388     16386     16389
     16389     16390     16389     16391     16389     16392     16392     16393
     16392     16394     16392     16395     16395     16396     16395     16397
     16395     16398     16346     16347     16347     16349     16347     16348
     16349     16350     16349     16351     16349     16399     16399     16400
     16399     16401     16399     16402     16402     16403     16402     16404
     16402     16405     16405     16406     16405     16407     16405     16408
     16408     16409     16408     16410     16408     16411     16411     16412
     16411     16413     16411     16414     16414     16415     16414     16416
     16414     16417     16417     16418     16417     16419     16417     16420
     16420     16421     16420     16422     16420     16423     16423     16424
     16423     16425     16423     16426     16426     16427     16426     16428
     16426     16429     16429     16430     16429     16431     16429     16432
     16432     16433     16432     16434     16432     16435     16435     16436
     16435     16437     16435     16438     16438     16439     16438     16440
     16438     16441     16442     16446     16442     16450     16442     16454
     16446     16447     16446     16448     16446     16449     16450     16451
     16450     16452     16450     16453     16454     16455     16454     16456
     16454     16457     16442     16443     16443     16444     16443     16445
     16443     16458     16458     16459     16458     16460     16458     16464
     16465     16466     16464     16461     16461     16465     16461     16462
     16461     16463     16466     16467     16466     16468     16466     16469
     16469     16470     16469     16477     16469     16471     16477     16478
     16477     16479     16477     16480     16471     16472     16472     16474
     16472     16473     16474     16475     16474     16476     16474     16486
     16486     16487     16486     16488     16486     16489     16489     16490
     16489     16491     16489     16492     16492     16493     16492     16494
     16492     16495     16495     16496     16495     16497     16495     16498
     16498     16499     16498     16500     16498     16501     16501     16502
     16501     16503     16501     16504     16504     16505     16504     16506
     16506     16507     16506     16508     16508     16509     16508     16510
     16508     16511     16511     16512     16511     16513     16511     16514
     16514     16515     16514     16516     16514     16517     16517     16518
     16517     16519     16517     16520     16520     16521     16520     16522
     16520     16523     16523     16524     16523     16525     16523     16526
     16526     16527     16526     16528     16526     16529     16529     16530
     16529     16531     16529     16532     16480     16481     16481     16483
     16481     16482     16483     16484     16483     16485     16483     16533
     16533     16534     16533     16535     16533     16536     16536     16537
     16536     16538     16536     16539     16539     16540     16539     16541
     16539     16542     16542     16543     16542     16544     16542     16545
     16545     16546     16545     16547     16545     16548     16548     16549
     16548     16550     16548     16551     16551     16552     16551     16553
     16551     16554     16554     16555     16554     16556     16554     16557
     16557     16558     16557     16559     16557     16560     16560     16561
     16560     16562     16560     16563     16563     16564     16563     16565
     16563     16566     16566     16567     16566     16568     16566     16569
     16569     16570     16569     16571     16569     16572     16572     16573
     16572     16574     16572     16575     16576     16577     16576     16578
     16576     16579     16576     16580     16584     16582     16582     16580
     16582     16583     16580     16581     16580     16585     16593     16592
     16585     16586     16585     16587     16585     16591     16591     16588
     16588     16592     16588     16589     16588     16590     16593     16594
     16593     16595     16593     16596     16596     16597     16596     16604
     16596     16598     16604     16605     16604     16606     16604     16607
     16598     16599     16599     16601     16599     16600     16601     16602
     16601     16603     16601     16613     16613     16614     16613     16615
     16613     16616     16616     16617     16616     16618     16616     16619
     16619     16620     16619     16621     16619     16622     16622     16623
     16622     16624     16622     16625     16625     16626     16625     16627
     16625     16628     16628     16629     16628     16630     16628     16631
     16631     16632     16631     16633     16633     16634     16633     16635
     16635     16636     16635     16637     16635     16638     16638     16639
     16638     16640     16638     16641     16641     16642     16641     16643
     16641     16644     16644     16645     16644     16646     16644     16647
     16647     16648     16647     16649     16647     16650     16650     16651
     16650     16652     16650     16653     16653     16654     16653     16655
     16653     16656     16656     16657     16656     16658     16656     16659
     16607     16608     16608     16610     16608     16609     16610     16611
     16610     16612     16610     16660     16660     16661     16660     16662
     16660     16663     16663     16664     16663     16665     16663     16666
     16666     16667     16666     16668     16666     16669     16669     16670
     16669     16671     16669     16672     16672     16673     16672     16674
     16672     16675     16675     16676     16675     16677     16675     16678
     16678     16679     16678     16680     16678     16681     16681     16682
     16681     16683     16681     16684     16684     16685     16684     16686
     16684     16687     16687     16688     16687     16689     16687     16690
     16690     16691     16690     16692     16690     16693     16693     16694
     16693     16695     16693     16696     16696     16697     16696     16698
     16696     16699     16699     16700     16699     16701     16699     16702
     16703     16707     16703     16711     16703     16715     16707     16708
     16707     16709     16707     16710     16711     16712     16711     16713
     16711     16714     16715     16716     16715     16717     16715     16718
     16703     16704     16704     16705     16704     16706     16704     16719
     16719     16720     16719     16721     16719     16725     16726     16727
     16725     16722     16722     16726     16722     16723     16722     16724
     16727     16728     16727     16729     16727     16730     16730     16731
     16730     16738     16730     16732     16738     16739     16738     16740
     16738     16741     16732     16733     16733     16735     16733     16734
     16735     16736     16735     16737     16735     16747     16747     16748
     16747     16749     16747     16750     16750     16751     16750     16752
     16750     16753     16753     16754     16753     16755     16753     16756
     16756     16757     16756     16758     16756     16759     16759     16760
     16759     16761     16759     16762     16762     16763     16762     16764
     16762     16765     16765     16766     16765     16767     16767     16768
     16767     16769     16769     16770     16769     16771     16769     16772
     16772     16773     16772     16774     16772     16775     16775     16776
     16775     16777     16775     16778     16778     16779     16778     16780
     16778     16781     16781     16782     16781     16783     16781     16784
     16784     16785     16784     16786     16784     16787     16787     16788
     16787     16789     16787     16790     16790     16791     16790     16792
     16790     16793     16741     16742     16742     16744     16742     16743
     16744     16745     16744     16746     16744     16794     16794     16795
     16794     16796     16794     16797     16797     16798     16797     16799
     16797     16800     16800     16801     16800     16802     16800     16803
     16803     16804     16803     16805     16803     16806     16806     16807
     16806     16808     16806     16809     16809     16810     16809     16811
     16809     16812     16812     16813     16812     16814     16812     16815
     16815     16816     16815     16817     16815     16818     16818     16819
     16818     16820     16818     16821     16821     16822     16821     16823
     16821     16824     16824     16825     16824     16826     16824     16827
     16827     16828     16827     16829     16827     16830     16830     16831
     16830     16832     16830     16833     16833     16834     16833     16835
     16833     16836     16837     16841     16837     16845     16837     16849
     16841     16842     16841     16843     16841     16844     16845     16846
     16845     16847     16845     16848     16849     16850     16849     16851
     16849     16852     16837     16838     16838     16839     16838     16840
     16838     16853     16853     16854     16853     16855     16853     16859
     16860     16861     16859     16856     16856     16860     16856     16857
     16856     16858     16861     16862     16861     16863     16861     16864
     16864     16865     16864     16872     16864     16866     16872     16873
     16872     16874     16872     16875     16866     16867     16867     16869
     16867     16868     16869     16870     16869     16871     16869     16881
     16881     16882     16881     16883     16881     16884     16884     16885
     16884     16886     16884     16887     16887     16888     16887     16889
     16887     16890     16890     16891     16890     16892     16890     16893
     16893     16894     16893     16895     16893     16896     16896     16897
     16896     16898     16896     16899     16899     16900     16899     16901
     16901     16902     16901     16903     16903     16904     16903     16905
     16903     16906     16906     16907     16906     16908     16906     16909
     16909     16910     16909     16911     16909     16912     16912     16913
     16912     16914     16912     16915     16915     16916     16915     16917
     16915     16918     16918     16919     16918     16920     16918     16921
     16921     16922     16921     16923     16921     16924     16924     16925
     16924     16926     16924     16927     16875     16876     16876     16878
     16876     16877     16878     16879     16878     16880     16878     16928
     16928     16929     16928     16930     16928     16931     16931     16932
     16931     16933     16931     16934     16934     16935     16934     16936
     16934     16937     16937     16938     16937     16939     16937     16940
     16940     16941     16940     16942     16940     16943     16943     16944
     16943     16945     16943     16946     16946     16947     16946     16948
     16946     16949     16949     16950     16949     16951     16949     16952
     16952     16953     16952     16954     16952     16955     16955     16956
     16955     16957     16955     16958     16958     16959     16958     16960
     16958     16961     16961     16962     16961     16963     16961     16964
     16964     16965     16964     16966     16964     16967     16967     16968
     16967     16969     16967     16970     16971     16975     16971     16979
     16971     16983     16975     16976     16975     16977     16975     16978
     16979     16980     16979     16981     16979     16982     16983     16984
     16983     16985     16983     16986     16971     16972     16972     16973
     16972     16974     16972     16987     16987     16988     16987     16989
     16987     16993     16994     16995     16993     16990     16990     16994
     16990     16991     16990     16992     16995     16996     16995     16997
     16995     16998     16998     16999     16998     17006     16998     17000
     17006     17007     17006     17008     17006     17009     17000     17001
     17001     17003     17001     17002     17003     17004     17003     17005
     17003     17015     17015     17016     17015     17017     17015     17018
     17018     17019     17018     17020     17018     17021     17021     17022
     17021     17023     17021     17024     17024     17025     17024     17026
     17024     17027     17027     17028     17027     17029     17027     17030
     17030     17031     17030     17032     17030     17033     17033     17034
     17033     17035     17035     17036     17035     17037     17037     17038
     17037     17039     17037     17040     17040     17041     17040     17042
     17040     17043     17043     17044     17043     17045     17043     17046
     17046     17047     17046     17048     17046     17049     17049     17050
     17049     17051     17049     17052     17052     17053     17052     17054
     17052     17055     17055     17056     17055     17057     17055     17058
     17058     17059     17058     17060     17058     17061     17009     17010
     17010     17012     17010     17011     17012     17013     17012     17014
     17012     17062     17062     17063     17062     17064     17062     17065
     17065     17066     17065     17067     17065     17068     17068     17069
     17068     17070     17068     17071     17071     17072     17071     17073
     17071     17074     17074     17075     17074     17076     17074     17077
     17077     17078     17077     17079     17077     17080     17080     17081
     17080     17082     17080     17083     17083     17084     17083     17085
     17083     17086     17086     17087     17086     17088     17086     17089
     17089     17090     17089     17091     17089     17092     17092     17093
     17092     17094     17092     17095     17095     17096     17095     17097
     17095     17098     17098     17099     17098     17100     17098     17101
     17101     17102     17101     17103     17101     17104     17105     17109
     17105     17113     17105     17117     17109     17110     17109     17111
     17109     17112     17113     17114     17113     17115     17113     17116
     17117     17118     17117     17119     17117     17120     17105     17106
     17106     17107     17106     17108     17106     17121     17121     17122
     17121     17123     17121     17127     17128     17129     17127     17124
     17124     17128     17124     17125     17124     17126     17129     17130
     17129     17131     17129     17132     17132     17133     17132     17140
     17132     17134     17140     17141     17140     17142     17140     17143
     17134     17135     17135     17137     17135     17136     17137     17138
     17137     17139     17137     17149     17149     17150     17149     17151
     17149     17152     17152     17153     17152     17154     17152     17155
     17155     17156     17155     17157     17155     17158     17158     17159
     17158     17160     17158     17161     17161     17162     17161     17163
     17161     17164     17164     17165     17164     17166     17164     17167
     17167     17168     17167     17169     17169     17170     17169     17171
     17171     17172     17171     17173     17171     17174     17174     17175
     17174     17176     17174     17177     17177     17178     17177     17179
     17177     17180     17180     17181     17180     17182     17180     17183
     17183     17184     17183     17185     17183     17186     17186     17187
     17186     17188     17186     17189     17189     17190     17189     17191
     17189     17192     17192     17193     17192     17194     17192     17195
     17143     17144     17144     17146     17144     17145     17146     17147
     17146     17148     17146     17196     17196     17197     17196     17198
     17196     17199     17199     17200     17199     17201     17199     17202
     17202     17203     17202     17204     17202     17205     17205     17206
     17205     17207     17205     17208     17208     17209     17208     17210
     17208     17211     17211     17212     17211     17213     17211     17214
     17214     17215     17214     17216     17214     17217     17217     17218
     17217     17219     17217     17220     17220     17221     17220     17222
     17220     17223     17223     17224     17223     17225     17223     17226
     17226     17227     17226     17228     17226     17229     17229     17230
     17229     17231     17229     17232     17232     17233     17232     17234
     17232     17235     17235     17236     17235     17237     17235     17238
     17239     17240     17239     17241     17240     17241     17242     17243
     17242     17244     17243     17244     17245     17246     17245     17247
     17246     17247     17248     17249     17248     17250     17249     17250
     17251     17252     17251     17253     17252     17253     17254     17255
     17254     17256     17255     17256     17257     17258     17257     17259
     17258     17259     17260     17261     17260     17262     17261     17262
     17263     17264     17263     17265     17264     17265     17266     17267
     17266     17268     17267     17268     17269     17270     17269     17271
     17270     17271     17272     17273     17272     17274     17273     17274
     17275     17276     17275     17277     17276     17277     17278     17279
     17278     17280     17279     17280     17281     17282     17281     17283
     17282     17283     17284     17285     17284     17286     17285     17286
     17287     17288     17287     17289     17288     17289     17290     17291
     17290     17292     17291     17292     17293     17294     17293     17295
     17294     17295     17296     17297     17296     17298     17297     17298
     17299     17300     17299     17301     17300     17301     17302     17303
     17302     17304     17303     17304     17305     17306     17305     17307
     17306     17307     17308     17309     17308     17310     17309     17310
     17311     17312     17311     17313     17312     17313     17314     17315
     17314     17316     17315     17316     17317     17318     17317     17319
     17318     17319     17320     17321     17320     17322     17321     17322
     17323     17324     17323     17325     17324     17325     17326     17327
     17326     17328     17327     17328     17329     17330     17329     17331
     17330     17331     17332     17333     17332     17334     17333     17334
     17335     17336     17335     17337     17336     17337     17338     17339
     17338     17340     17339     17340     17341     17342     17341     17343
     17342     17343     17344     17345     17344     17346     17345     17346
     17347     17348     17347     17349     17348     17349     17350     17351
     17350     17352     17351     17352     17353     17354     17353     17355
     17354     17355     17356     17357     17356     17358     17357     17358
     17359     17360     17359     17361     17360     17361     17362     17363
     17362     17364     17363     17364     17365     17366     17365     17367
     17366     17367     17368     17369     17368     17370     17369     17370
     17371     17372     17371     17373     17372     17373     17374     17375
     17374     17376     17375     17376     17377     17378     17377     17379
     17378     17379     17380     17381     17380     17382     17381     17382
     17383     17384     17383     17385     17384     17385     17386     17387
     17386     17388     17387     17388     17389     17390     17389     17391
     17390     17391     17392     17393     17392     17394     17393     17394
     17395     17396     17395     17397     17396     17397     17398     17399
     17398     17400     17399     17400     17401     17402     17401     17403
     17402     17403     17404     17405     17404     17406     17405     17406
     17407     17408     17407     17409     17408     17409     17410     17411
     17410     17412     17411     17412     17413     17414     17413     17415
     17414     17415     17416     17417     17416     17418     17417     17418
     17419     17420     17419     17421     17420     17421     17422     17423
     17422     17424     17423     17424     17425     17426     17425     17427
     17426     17427     17428     17429     17428     17430     17429     17430
     17431     17432     17431     17433     17432     17433     17434     17435
     17434     17436     17435     17436     17437     17438     17437     17439
     17438     17439     17440     17441     17440     17442     17441     17442
     17443     17444     17443     17445     17444     17445     17446     17447
     17446     17448     17447     17448     17449     17450     17449     17451
     17450     17451     17452     17453     17452     17454     17453     17454
     17455     17456     17455     17457     17456     17457     17458     17459
     17458     17460     17459     17460     17461     17462     17461     17463
     17462     17463     17464     17465     17464     17466     17465     17466
     17467     17468     17467     17469     17468     17469     17470     17471
     17470     17472     17471     17472     17473     17474     17473     17475
     17474     17475     17476     17477     17476     17478     17477     17478
     17479     17480     17479     17481     17480     17481     17482     17483
     17482     17484     17483     17484     17485     17486     17485     17487
     17486     17487     17488     17489     17488     17490     17489     17490
     17491     17492     17491     17493     17492     17493     17494     17495
     17494     17496     17495     17496     17497     17498     17497     17499
     17498     17499     17500     17501     17500     17502     17501     17502
     17503     17504     17503     17505     17504     17505     17506     17507
     17506     17508     17507     17508     17509     17510     17509     17511
     17510     17511     17512     17513     17512     17514     17513     17514
     17515     17516     17515     17517     17516     17517     17518     17519
     17518     17520     17519     17520     17521     17522     17521     17523
     17522     17523     17524     17525     17524     17526     17525     17526
     17527     17528     17527     17529     17528     17529     17530     17531
     17530     17532     17531     17532     17533     17534     17533     17535
     17534     17535     17536     17537     17536     17538     17537     17538
     17539     17540     17539     17541     17540     17541     17542     17543
     17542     17544     17543     17544     17545     17546     17545     17547
     17546     17547     17548     17549     17548     17550     17549     17550
     17551     17552     17551     17553     17552     17553     17554     17555
     17554     17556     17555     17556     17557     17558     17557     17559
     17558     17559     17560     17561     17560     17562     17561     17562
     17563     17564     17563     17565     17564     17565     17566     17567
     17566     17568     17567     17568     17569     17570     17569     17571
     17570     17571     17572     17573     17572     17574     17573     17574
     17575     17576     17575     17577     17576     17577     17578     17579
     17578     17580     17579     17580     17581     17582     17581     17583
     17582     17583     17584     17585     17584     17586     17585     17586
     17587     17588     17587     17589     17588     17589     17590     17591
     17590     17592     17591     17592     17593     17594     17593     17595
     17594     17595     17596     17597     17596     17598     17597     17598
     17599     17600     17599     17601     17600     17601     17602     17603
     17602     17604     17603     17604     17605     17606     17605     17607
     17606     17607     17608     17609     17608     17610     17609     17610
     17611     17612     17611     17613     17612     17613     17614     17615
     17614     17616     17615     17616     17617     17618     17617     17619
     17618     17619     17620     17621     17620     17622     17621     17622
     17623     17624     17623     17625     17624     17625     17626     17627
     17626     17628     17627     17628     17629     17630     17629     17631
     17630     17631     17632     17633     17632     17634     17633     17634
     17635     17636     17635     17637     17636     17637     17638     17639
     17638     17640     17639     17640     17641     17642     17641     17643
     17642     17643     17644     17645     17644     17646     17645     17646
     17647     17648     17647     17649     17648     17649     17650     17651
     17650     17652     17651     17652     17653     17654     17653     17655
     17654     17655     17656     17657     17656     17658     17657     17658
     17659     17660     17659     17661     17660     17661     17662     17663
     17662     17664     17663     17664     17665     17666     17665     17667
     17666     17667     17668     17669     17668     17670     17669     17670
     17671     17672     17671     17673     17672     17673     17674     17675
     17674     17676     17675     17676     17677     17678     17677     17679
     17678     17679     17680     17681     17680     17682     17681     17682
     17683     17684     17683     17685     17684     17685     17686     17687
     17686     17688     17687     17688     17689     17690     17689     17691
     17690     17691     17692     17693     17692     17694     17693     17694
     17695     17696     17695     17697     17696     17697     17698     17699
     17698     17700     17699     17700     17701     17702     17701     17703
     17702     17703     17704     17705     17704     17706     17705     17706
     17707     17708     17707     17709     17708     17709     17710     17711
     17710     17712     17711     17712     17713     17714     17713     17715
     17714     17715     17716     17717     17716     17718     17717     17718
     17719     17720     17719     17721     17720     17721     17722     17723
     17722     17724     17723     17724     17725     17726     17725     17727
     17726     17727     17728     17729     17728     17730     17729     17730
     17731     17732     17731     17733     17732     17733     17734     17735
     17734     17736     17735     17736     17737     17738     17737     17739
     17738     17739     17740     17741     17740     17742     17741     17742
     17743     17744     17743     17745     17744     17745     17746     17747
     17746     17748     17747     17748     17749     17750     17749     17751
     17750     17751     17752     17753     17752     17754     17753     17754
     17755     17756     17755     17757     17756     17757     17758     17759
     17758     17760     17759     17760     17761     17762     17761     17763
     17762     17763     17764     17765     17764     17766     17765     17766
     17767     17768     17767     17769     17768     17769     17770     17771
     17770     17772     17771     17772     17773     17774     17773     17775
     17774     17775     17776     17777     17776     17778     17777     17778
     17779     17780     17779     17781     17780     17781     17782     17783
     17782     17784     17783     17784     17785     17786     17785     17787
     17786     17787     17788     17789     17788     17790     17789     17790
     17791     17792     17791     17793     17792     17793     17794     17795
     17794     17796     17795     17796     17797     17798     17797     17799
     17798     17799     17800     17801     17800     17802     17801     17802
     17803     17804     17803     17805     17804     17805     17806     17807
     17806     17808     17807     17808     17809     17810     17809     17811
     17810     17811     17812     17813     17812     17814     17813     17814
     17815     17816     17815     17817     17816     17817     17818     17819
     17818     17820     17819     17820     17821     17822     17821     17823
     17822     17823     17824     17825     17824     17826     17825     17826
     17827     17828     17827     17829     17828     17829     17830     17831
     17830     17832     17831     17832     17833     17834     17833     17835
     17834     17835     17836     17837     17836     17838     17837     17838
     17839     17840     17839     17841     17840     17841     17842     17843
     17842     17844     17843     17844     17845     17846     17845     17847
     17846     17847     17848     17849     17848     17850     17849     17850
     17851     17852     17851     17853     17852     17853     17854     17855
     17854     17856     17855     17856     17857     17858     17857     17859
     17858     17859     17860     17861     17860     17862     17861     17862
     17863     17864     17863     17865     17864     17865     17866     17867
     17866     17868     17867     17868     17869     17870     17869     17871
     17870     17871     17872     17873     17872     17874     17873     17874
     17875     17876     17875     17877     17876     17877     17878     17879
     17878     17880     17879     17880     17881     17882     17881     17883
     17882     17883     17884     17885     17884     17886     17885     17886
     17887     17888     17887     17889     17888     17889     17890     17891
     17890     17892     17891     17892     17893     17894     17893     17895
     17894     17895     17896     17897     17896     17898     17897     17898
     17899     17900     17899     17901     17900     17901     17902     17903
     17902     17904     17903     17904     17905     17906     17905     17907
     17906     17907     17908     17909     17908     17910     17909     17910
     17911     17912     17911     17913     17912     17913     17914     17915
     17914     17916     17915     17916     17917     17918     17917     17919
     17918     17919     17920     17921     17920     17922     17921     17922
     17923     17924     17923     17925     17924     17925     17926     17927
     17926     17928     17927     17928     17929     17930     17929     17931
     17930     17931     17932     17933     17932     17934     17933     17934
     17935     17936     17935     17937     17936     17937     17938     17939
     17938     17940     17939     17940     17941     17942     17941     17943
     17942     17943     17944     17945     17944     17946     17945     17946
     17947     17948     17947     17949     17948     17949     17950     17951
     17950     17952     17951     17952     17953     17954     17953     17955
     17954     17955     17956     17957     17956     17958     17957     17958
     17959     17960     17959     17961     17960     17961     17962     17963
     17962     17964     17963     17964     17965     17966     17965     17967
     17966     17967     17968     17969     17968     17970     17969     17970
     17971     17972     17971     17973     17972     17973     17974     17975
     17974     17976     17975     17976     17977     17978     17977     17979
     17978     17979     17980     17981     17980     17982     17981     17982
     17983     17984     17983     17985     17984     17985     17986     17987
     17986     17988     17987     17988     17989     17990     17989     17991
     17990     17991     17992     17993     17992     17994     17993     17994
     17995     17996     17995     17997     17996     17997     17998     17999
     17998     18000     17999     18000     18001     18002     18001     18003
     18002     18003     18004     18005     18004     18006     18005     18006
     18007     18008     18007     18009     18008     18009     18010     18011
     18010     18012     18011     18012     18013     18014     18013     18015
     18014     18015     18016     18017     18016     18018     18017     18018
     18019     18020     18019     18021     18020     18021     18022     18023
     18022     18024     18023     18024     18025     18026     18025     18027
     18026     18027     18028     18029     18028     18030     18029     18030
     18031     18032     18031     18033     18032     18033     18034     18035
     18034     18036     18035     18036     18037     18038     18037     18039
     18038     18039     18040     18041     18040     18042     18041     18042
     18043     18044     18043     18045     18044     18045     18046     18047
     18046     18048     18047     18048     18049     18050     18049     18051
     18050     18051     18052     18053     18052     18054     18053     18054
     18055     18056     18055     18057     18056     18057     18058     18059
     18058     18060     18059     18060     18061     18062     18061     18063
     18062     18063     18064     18065     18064     18066     18065     18066
     18067     18068     18067     18069     18068     18069     18070     18071
     18070     18072     18071     18072     18073     18074     18073     18075
     18074     18075     18076     18077     18076     18078     18077     18078
     18079     18080     18079     18081     18080     18081     18082     18083
     18082     18084     18083     18084     18085     18086     18085     18087
     18086     18087     18088     18089     18088     18090     18089     18090
     18091     18092     18091     18093     18092     18093     18094     18095
     18094     18096     18095     18096     18097     18098     18097     18099
     18098     18099     18100     18101     18100     18102     18101     18102
     18103     18104     18103     18105     18104     18105     18106     18107
     18106     18108     18107     18108     18109     18110     18109     18111
     18110     18111     18112     18113     18112     18114     18113     18114
     18115     18116     18115     18117     18116     18117     18118     18119
     18118     18120     18119     18120     18121     18122     18121     18123
     18122     18123     18124     18125     18124     18126     18125     18126
     18127     18128     18127     18129     18128     18129     18130     18131
     18130     18132     18131     18132     18133     18134     18133     18135
     18134     18135     18136     18137     18136     18138     18137     18138
     18139     18140     18139     18141     18140     18141     18142     18143
     18142     18144     18143     18144     18145     18146     18145     18147
     18146     18147     18148     18149     18148     18150     18149     18150
     18151     18152     18151     18153     18152     18153     18154     18155
     18154     18156     18155     18156     18157     18158     18157     18159
     18158     18159     18160     18161     18160     18162     18161     18162
     18163     18164     18163     18165     18164     18165     18166     18167
     18166     18168     18167     18168     18169     18170     18169     18171
     18170     18171     18172     18173     18172     18174     18173     18174
     18175     18176     18175     18177     18176     18177     18178     18179
     18178     18180     18179     18180     18181     18182     18181     18183
     18182     18183     18184     18185     18184     18186     18185     18186
     18187     18188     18187     18189     18188     18189     18190     18191
     18190     18192     18191     18192     18193     18194     18193     18195
     18194     18195     18196     18197     18196     18198     18197     18198
     18199     18200     18199     18201     18200     18201     18202     18203
     18202     18204     18203     18204     18205     18206     18205     18207
     18206     18207     18208     18209     18208     18210     18209     18210
     18211     18212     18211     18213     18212     18213     18214     18215
     18214     18216     18215     18216     18217     18218     18217     18219
     18218     18219     18220     18221     18220     18222     18221     18222
     18223     18224     18223     18225     18224     18225     18226     18227
     18226     18228     18227     18228     18229     18230     18229     18231
     18230     18231     18232     18233     18232     18234     18233     18234
     18235     18236     18235     18237     18236     18237     18238     18239
     18238     18240     18239     18240     18241     18242     18241     18243
     18242     18243     18244     18245     18244     18246     18245     18246
     18247     18248     18247     18249     18248     18249     18250     18251
     18250     18252     18251     18252     18253     18254     18253     18255
     18254     18255     18256     18257     18256     18258     18257     18258
     18259     18260     18259     18261     18260     18261     18262     18263
     18262     18264     18263     18264     18265     18266     18265     18267
     18266     18267     18268     18269     18268     18270     18269     18270
     18271     18272     18271     18273     18272     18273     18274     18275
     18274     18276     18275     18276     18277     18278     18277     18279
     18278     18279     18280     18281     18280     18282     18281     18282
     18283     18284     18283     18285     18284     18285     18286     18287
     18286     18288     18287     18288     18289     18290     18289     18291
     18290     18291     18292     18293     18292     18294     18293     18294
     18295     18296     18295     18297     18296     18297     18298     18299
     18298     18300     18299     18300     18301     18302     18301     18303
     18302     18303     18304     18305     18304     18306     18305     18306
     18307     18308     18307     18309     18308     18309     18310     18311
     18310     18312     18311     18312     18313     18314     18313     18315
     18314     18315     18316     18317     18316     18318     18317     18318
     18319     18320     18319     18321     18320     18321     18322     18323
     18322     18324     18323     18324     18325     18326     18325     18327
     18326     18327     18328     18329     18328     18330     18329     18330
     18331     18332     18331     18333     18332     18333     18334     18335
     18334     18336     18335     18336     18337     18338     18337     18339
     18338     18339     18340     18341     18340     18342     18341     18342
     18343     18344     18343     18345     18344     18345     18346     18347
     18346     18348     18347     18348     18349     18350     18349     18351
     18350     18351     18352     18353     18352     18354     18353     18354
     18355     18356     18355     18357     18356     18357     18358     18359
     18358     18360     18359     18360     18361     18362     18361     18363
     18362     18363     18364     18365     18364     18366     18365     18366
     18367     18368     18367     18369     18368     18369     18370     18371
     18370     18372     18371     18372     18373     18374     18373     18375
     18374     18375     18376     18377     18376     18378     18377     18378
     18379     18380     18379     18381     18380     18381     18382     18383
     18382     18384     18383     18384     18385     18386     18385     18387
     18386     18387     18388     18389     18388     18390     18389     18390
     18391     18392     18391     18393     18392     18393     18394     18395
     18394     18396     18395     18396     18397     18398     18397     18399
     18398     18399     18400     18401     18400     18402     18401     18402
     18403     18404     18403     18405     18404     18405     18406     18407
     18406     18408     18407     18408     18409     18410     18409     18411
     18410     18411     18412     18413     18412     18414     18413     18414
     18415     18416     18415     18417     18416     18417     18418     18419
     18418     18420     18419     18420     18421     18422     18421     18423
     18422     18423     18424     18425     18424     18426     18425     18426
     18427     18428     18427     18429     18428     18429     18430     18431
     18430     18432     18431     18432     18433     18434     18433     18435
     18434     18435     18436     18437     18436     18438     18437     18438
     18439     18440     18439     18441     18440     18441     18442     18443
     18442     18444     18443     18444     18445     18446     18445     18447
     18446     18447     18448     18449     18448     18450     18449     18450
     18451     18452     18451     18453     18452     18453     18454     18455
     18454     18456     18455     18456     18457     18458     18457     18459
     18458     18459     18460     18461     18460     18462     18461     18462
     18463     18464     18463     18465     18464     18465     18466     18467
     18466     18468     18467     18468     18469     18470     18469     18471
     18470     18471     18472     18473     18472     18474     18473     18474
     18475     18476     18475     18477     18476     18477     18478     18479
     18478     18480     18479     18480     18481     18482     18481     18483
     18482     18483     18484     18485     18484     18486     18485     18486
     18487     18488     18487     18489     18488     18489     18490     18491
     18490     18492     18491     18492     18493     18494     18493     18495
     18494     18495     18496     18497     18496     18498     18497     18498
     18499     18500     18499     18501     18500     18501     18502     18503
     18502     18504     18503     18504     18505     18506     18505     18507
     18506     18507     18508     18509     18508     18510     18509     18510
     18511     18512     18511     18513     18512     18513     18514     18515
     18514     18516     18515     18516     18517     18518     18517     18519
     18518     18519     18520     18521     18520     18522     18521     18522
     18523     18524     18523     18525     18524     18525     18526     18527
     18526     18528     18527     18528     18529     18530     18529     18531
     18530     18531     18532     18533     18532     18534     18533     18534
     18535     18536     18535     18537     18536     18537     18538     18539
     18538     18540     18539     18540     18541     18542     18541     18543
     18542     18543     18544     18545     18544     18546     18545     18546
     18547     18548     18547     18549     18548     18549     18550     18551
     18550     18552     18551     18552     18553     18554     18553     18555
     18554     18555     18556     18557     18556     18558     18557     18558
     18559     18560     18559     18561     18560     18561     18562     18563
     18562     18564     18563     18564     18565     18566     18565     18567
     18566     18567     18568     18569     18568     18570     18569     18570
     18571     18572     18571     18573     18572     18573     18574     18575
     18574     18576     18575     18576     18577     18578     18577     18579
     18578     18579     18580     18581     18580     18582     18581     18582
     18583     18584     18583     18585     18584     18585     18586     18587
     18586     18588     18587     18588     18589     18590     18589     18591
     18590     18591     18592     18593     18592     18594     18593     18594
     18595     18596     18595     18597     18596     18597     18598     18599
     18598     18600     18599     18600     18601     18602     18601     18603
     18602     18603     18604     18605     18604     18606     18605     18606
     18607     18608     18607     18609     18608     18609     18610     18611
     18610     18612     18611     18612     18613     18614     18613     18615
     18614     18615     18616     18617     18616     18618     18617     18618
     18619     18620     18619     18621     18620     18621     18622     18623
     18622     18624     18623     18624     18625     18626     18625     18627
     18626     18627     18628     18629     18628     18630     18629     18630
     18631     18632     18631     18633     18632     18633     18634     18635
     18634     18636     18635     18636     18637     18638     18637     18639
     18638     18639     18640     18641     18640     18642     18641     18642
     18643     18644     18643     18645     18644     18645     18646     18647
     18646     18648     18647     18648     18649     18650     18649     18651
     18650     18651     18652     18653     18652     18654     18653     18654
     18655     18656     18655     18657     18656     18657     18658     18659
     18658     18660     18659     18660     18661     18662     18661     18663
     18662     18663     18664     18665     18664     18666     18665     18666
     18667     18668     18667     18669     18668     18669     18670     18671
     18670     18672     18671     18672     18673     18674     18673     18675
     18674     18675     18676     18677     18676     18678     18677     18678
     18679     18680     18679     18681     18680     18681     18682     18683
     18682     18684     18683     18684     18685     18686     18685     18687
     18686     18687     18688     18689     18688     18690     18689     18690
     18691     18692     18691     18693     18692     18693     18694     18695
     18694     18696     18695     18696     18697     18698     18697     18699
     18698     18699     18700     18701     18700     18702     18701     18702
     18703     18704     18703     18705     18704     18705     18706     18707
     18706     18708     18707     18708     18709     18710     18709     18711
     18710     18711     18712     18713     18712     18714     18713     18714
     18715     18716     18715     18717     18716     18717     18718     18719
     18718     18720     18719     18720     18721     18722     18721     18723
     18722     18723     18724     18725     18724     18726     18725     18726
     18727     18728     18727     18729     18728     18729     18730     18731
     18730     18732     18731     18732     18733     18734     18733     18735
     18734     18735     18736     18737     18736     18738     18737     18738
     18739     18740     18739     18741     18740     18741     18742     18743
     18742     18744     18743     18744     18745     18746     18745     18747
     18746     18747     18748     18749     18748     18750     18749     18750
     18751     18752     18751     18753     18752     18753     18754     18755
     18754     18756     18755     18756     18757     18758     18757     18759
     18758     18759     18760     18761     18760     18762     18761     18762
     18763     18764     18763     18765     18764     18765     18766     18767
     18766     18768     18767     18768     18769     18770     18769     18771
     18770     18771     18772     18773     18772     18774     18773     18774
     18775     18776     18775     18777     18776     18777     18778     18779
     18778     18780     18779     18780     18781     18782     18781     18783
     18782     18783     18784     18785     18784     18786     18785     18786
     18787     18788     18787     18789     18788     18789     18790     18791
     18790     18792     18791     18792     18793     18794     18793     18795
     18794     18795     18796     18797     18796     18798     18797     18798
     18799     18800     18799     18801     18800     18801     18802     18803
     18802     18804     18803     18804     18805     18806     18805     18807
     18806     18807     18808     18809     18808     18810     18809     18810
     18811     18812     18811     18813     18812     18813     18814     18815
     18814     18816     18815     18816     18817     18818     18817     18819
     18818     18819     18820     18821     18820     18822     18821     18822
     18823     18824     18823     18825     18824     18825     18826     18827
     18826     18828     18827     18828     18829     18830     18829     18831
     18830     18831     18832     18833     18832     18834     18833     18834
     18835     18836     18835     18837     18836     18837     18838     18839
     18838     18840     18839     18840     18841     18842     18841     18843
     18842     18843     18844     18845     18844     18846     18845     18846
     18847     18848     18847     18849     18848     18849     18850     18851
     18850     18852     18851     18852     18853     18854     18853     18855
     18854     18855     18856     18857     18856     18858     18857     18858
     18859     18860     18859     18861     18860     18861     18862     18863
     18862     18864     18863     18864     18865     18866     18865     18867
     18866     18867     18868     18869     18868     18870     18869     18870
     18871     18872     18871     18873     18872     18873     18874     18875
     18874     18876     18875     18876     18877     18878     18877     18879
     18878     18879     18880     18881     18880     18882     18881     18882
     18883     18884     18883     18885     18884     18885     18886     18887
     18886     18888     18887     18888     18889     18890     18889     18891
     18890     18891     18892     18893     18892     18894     18893     18894
     18895     18896     18895     18897     18896     18897     18898     18899
     18898     18900     18899     18900     18901     18902     18901     18903
     18902     18903     18904     18905     18904     18906     18905     18906
     18907     18908     18907     18909     18908     18909     18910     18911
     18910     18912     18911     18912     18913     18914     18913     18915
     18914     18915     18916     18917     18916     18918     18917     18918
     18919     18920     18919     18921     18920     18921     18922     18923
     18922     18924     18923     18924     18925     18926     18925     18927
     18926     18927     18928     18929     18928     18930     18929     18930
     18931     18932     18931     18933     18932     18933     18934     18935
     18934     18936     18935     18936     18937     18938     18937     18939
     18938     18939     18940     18941     18940     18942     18941     18942
     18943     18944     18943     18945     18944     18945     18946     18947
     18946     18948     18947     18948     18949     18950     18949     18951
     18950     18951     18952     18953     18952     18954     18953     18954
     18955     18956     18955     18957     18956     18957     18958     18959
     18958     18960     18959     18960     18961     18962     18961     18963
     18962     18963     18964     18965     18964     18966     18965     18966
     18967     18968     18967     18969     18968     18969     18970     18971
     18970     18972     18971     18972     18973     18974     18973     18975
     18974     18975     18976     18977     18976     18978     18977     18978
     18979     18980     18979     18981     18980     18981     18982     18983
     18982     18984     18983     18984     18985     18986     18985     18987
     18986     18987     18988     18989     18988     18990     18989     18990
     18991     18992     18991     18993     18992     18993     18994     18995
     18994     18996     18995     18996     18997     18998     18997     18999
     18998     18999     19000     19001     19000     19002     19001     19002
     19003     19004     19003     19005     19004     19005     19006     19007
     19006     19008     19007     19008     19009     19010     19009     19011
     19010     19011     19012     19013     19012     19014     19013     19014
     19015     19016     19015     19017     19016     19017     19018     19019
     19018     19020     19019     19020     19021     19022     19021     19023
     19022     19023     19024     19025     19024     19026     19025     19026
     19027     19028     19027     19029     19028     19029     19030     19031
     19030     19032     19031     19032     19033     19034     19033     19035
     19034     19035     19036     19037     19036     19038     19037     19038
     19039     19040     19039     19041     19040     19041     19042     19043
     19042     19044     19043     19044     19045     19046     19045     19047
     19046     19047     19048     19049     19048     19050     19049     19050
     19051     19052     19051     19053     19052     19053     19054     19055
     19054     19056     19055     19056     19057     19058     19057     19059
     19058     19059     19060     19061     19060     19062     19061     19062
     19063     19064     19063     19065     19064     19065     19066     19067
     19066     19068     19067     19068     19069     19070     19069     19071
     19070     19071     19072     19073     19072     19074     19073     19074
     19075     19076     19075     19077     19076     19077     19078     19079
     19078     19080     19079     19080     19081     19082     19081     19083
     19082     19083     19084     19085     19084     19086     19085     19086
     19087     19088     19087     19089     19088     19089     19090     19091
     19090     19092     19091     19092     19093     19094     19093     19095
     19094     19095     19096     19097     19096     19098     19097     19098
     19099     19100     19099     19101     19100     19101     19102     19103
     19102     19104     19103     19104     19105     19106     19105     19107
     19106     19107     19108     19109     19108     19110     19109     19110
     19111     19112     19111     19113     19112     19113     19114     19115
     19114     19116     19115     19116     19117     19118     19117     19119
     19118     19119     19120     19121     19120     19122     19121     19122
     19123     19124     19123     19125     19124     19125     19126     19127
     19126     19128     19127     19128     19129     19130     19129     19131
     19130     19131     19132     19133     19132     19134     19133     19134
     19135     19136     19135     19137     19136     19137     19138     19139
     19138     19140     19139     19140     19141     19142     19141     19143
     19142     19143     19144     19145     19144     19146     19145     19146
     19147     19148     19147     19149     19148     19149     19150     19151
     19150     19152     19151     19152     19153     19154     19153     19155
     19154     19155     19156     19157     19156     19158     19157     19158
     19159     19160     19159     19161     19160     19161     19162     19163
     19162     19164     19163     19164     19165     19166     19165     19167
     19166     19167     19168     19169     19168     19170     19169     19170
     19171     19172     19171     19173     19172     19173     19174     19175
     19174     19176     19175     19176     19177     19178     19177     19179
     19178     19179     19180     19181     19180     19182     19181     19182
     19183     19184     19183     19185     19184     19185     19186     19187
     19186     19188     19187     19188     19189     19190     19189     19191
     19190     19191     19192     19193     19192     19194     19193     19194
     19195     19196     19195     19197     19196     19197     19198     19199
     19198     19200     19199     19200     19201     19202     19201     19203
     19202     19203     19204     19205     19204     19206     19205     19206
     19207     19208     19207     19209     19208     19209     19210     19211
     19210     19212     19211     19212     19213     19214     19213     19215
     19214     19215     19216     19217     19216     19218     19217     19218
     19219     19220     19219     19221     19220     19221     19222     19223
     19222     19224     19223     19224     19225     19226     19225     19227
     19226     19227     19228     19229     19228     19230     19229     19230
     19231     19232     19231     19233     19232     19233     19234     19235
     19234     19236     19235     19236     19237     19238     19237     19239
     19238     19239     19240     19241     19240     19242     19241     19242
     19243     19244     19243     19245     19244     19245     19246     19247
     19246     19248     19247     19248     19249     19250     19249     19251
     19250     19251     19252     19253     19252     19254     19253     19254
     19255     19256     19255     19257     19256     19257     19258     19259
     19258     19260     19259     19260     19261     19262     19261     19263
     19262     19263     19264     19265     19264     19266     19265     19266
     19267     19268     19267     19269     19268     19269     19270     19271
     19270     19272     19271     19272     19273     19274     19273     19275
     19274     19275     19276     19277     19276     19278     19277     19278
     19279     19280     19279     19281     19280     19281     19282     19283
     19282     19284     19283     19284     19285     19286     19285     19287
     19286     19287     19288     19289     19288     19290     19289     19290
     19291     19292     19291     19293     19292     19293     19294     19295
     19294     19296     19295     19296     19297     19298     19297     19299
     19298     19299     19300     19301     19300     19302     19301     19302
     19303     19304     19303     19305     19304     19305     19306     19307
     19306     19308     19307     19308     19309     19310     19309     19311
     19310     19311     19312     19313     19312     19314     19313     19314
     19315     19316     19315     19317     19316     19317     19318     19319
     19318     19320     19319     19320     19321     19322     19321     19323
     19322     19323     19324     19325     19324     19326     19325     19326
     19327     19328     19327     19329     19328     19329     19330     19331
     19330     19332     19331     19332     19333     19334     19333     19335
     19334     19335     19336     19337     19336     19338     19337     19338
     19339     19340     19339     19341     19340     19341     19342     19343
     19342     19344     19343     19344     19345     19346     19345     19347
     19346     19347     19348     19349     19348     19350     19349     19350
     19351     19352     19351     19353     19352     19353     19354     19355
     19354     19356     19355     19356     19357     19358     19357     19359
     19358     19359     19360     19361     19360     19362     19361     19362
     19363     19364     19363     19365     19364     19365     19366     19367
     19366     19368     19367     19368     19369     19370     19369     19371
     19370     19371     19372     19373     19372     19374     19373     19374
     19375     19376     19375     19377     19376     19377     19378     19379
     19378     19380     19379     19380     19381     19382     19381     19383
     19382     19383     19384     19385     19384     19386     19385     19386
     19387     19388     19387     19389     19388     19389     19390     19391
     19390     19392     19391     19392     19393     19394     19393     19395
     19394     19395     19396     19397     19396     19398     19397     19398
     19399     19400     19399     19401     19400     19401     19402     19403
     19402     19404     19403     19404     19405     19406     19405     19407
     19406     19407     19408     19409     19408     19410     19409     19410
     19411     19412     19411     19413     19412     19413     19414     19415
     19414     19416     19415     19416     19417     19418     19417     19419
     19418     19419     19420     19421     19420     19422     19421     19422
     19423     19424     19423     19425     19424     19425     19426     19427
     19426     19428     19427     19428     19429     19430     19429     19431
     19430     19431     19432     19433     19432     19434     19433     19434
     19435     19436     19435     19437     19436     19437     19438     19439
     19438     19440     19439     19440     19441     19442     19441     19443
     19442     19443     19444     19445     19444     19446     19445     19446
     19447     19448     19447     19449     19448     19449     19450     19451
     19450     19452     19451     19452     19453     19454     19453     19455
     19454     19455     19456     19457     19456     19458     19457     19458
     19459     19460     19459     19461     19460     19461     19462     19463
     19462     19464     19463     19464     19465     19466     19465     19467
     19466     19467     19468     19469     19468     19470     19469     19470
     19471     19472     19471     19473     19472     19473     19474     19475
     19474     19476     19475     19476     19477     19478     19477     19479
     19478     19479     19480     19481     19480     19482     19481     19482
     19483     19484     19483     19485     19484     19485     19486     19487
     19486     19488     19487     19488     19489     19490     19489     19491
     19490     19491     19492     19493     19492     19494     19493     19494
     19495     19496     19495     19497     19496     19497     19498     19499
     19498     19500     19499     19500     19501     19502     19501     19503
     19502     19503     19504     19505     19504     19506     19505     19506
     19507     19508     19507     19509     19508     19509     19510     19511
     19510     19512     19511     19512     19513     19514     19513     19515
     19514     19515     19516     19517     19516     19518     19517     19518
     19519     19520     19519     19521     19520     19521     19522     19523
     19522     19524     19523     19524     19525     19526     19525     19527
     19526     19527     19528     19529     19528     19530     19529     19530
     19531     19532     19531     19533     19532     19533     19534     19535
     19534     19536     19535     19536     19537     19538     19537     19539
     19538     19539     19540     19541     19540     19542     19541     19542
     19543     19544     19543     19545     19544     19545     19546     19547
     19546     19548     19547     19548     19549     19550     19549     19551
     19550     19551     19552     19553     19552     19554     19553     19554
     19555     19556     19555     19557     19556     19557     19558     19559
     19558     19560     19559     19560     19561     19562     19561     19563
     19562     19563     19564     19565     19564     19566     19565     19566
     19567     19568     19567     19569     19568     19569     19570     19571
     19570     19572     19571     19572     19573     19574     19573     19575
     19574     19575     19576     19577     19576     19578     19577     19578
     19579     19580     19579     19581     19580     19581     19582     19583
     19582     19584     19583     19584     19585     19586     19585     19587
     19586     19587     19588     19589     19588     19590     19589     19590
     19591     19592     19591     19593     19592     19593     19594     19595
     19594     19596     19595     19596     19597     19598     19597     19599
     19598     19599     19600     19601     19600     19602     19601     19602
     19603     19604     19603     19605     19604     19605     19606     19607
     19606     19608     19607     19608     19609     19610     19609     19611
     19610     19611     19612     19613     19612     19614     19613     19614
     19615     19616     19615     19617     19616     19617     19618     19619
     19618     19620     19619     19620     19621     19622     19621     19623
     19622     19623     19624     19625     19624     19626     19625     19626
     19627     19628     19627     19629     19628     19629     19630     19631
     19630     19632     19631     19632     19633     19634     19633     19635
     19634     19635     19636     19637     19636     19638     19637     19638
     19639     19640     19639     19641     19640     19641     19642     19643
     19642     19644     19643     19644     19645     19646     19645     19647
     19646     19647     19648     19649     19648     19650     19649     19650
     19651     19652     19651     19653     19652     19653     19654     19655
     19654     19656     19655     19656     19657     19658     19657     19659
     19658     19659     19660     19661     19660     19662     19661     19662
     19663     19664     19663     19665     19664     19665     19666     19667
     19666     19668     19667     19668     19669     19670     19669     19671
     19670     19671     19672     19673     19672     19674     19673     19674
     19675     19676     19675     19677     19676     19677     19678     19679
     19678     19680     19679     19680     19681     19682     19681     19683
     19682     19683     19684     19685     19684     19686     19685     19686
     19687     19688     19687     19689     19688     19689     19690     19691
     19690     19692     19691     19692     19693     19694     19693     19695
     19694     19695     19696     19697     19696     19698     19697     19698
     19699     19700     19699     19701     19700     19701     19702     19703
     19702     19704     19703     19704     19705     19706     19705     19707
     19706     19707     19708     19709     19708     19710     19709     19710
     19711     19712     19711     19713     19712     19713     19714     19715
     19714     19716     19715     19716     19717     19718     19717     19719
     19718     19719     19720     19721     19720     19722     19721     19722
     19723     19724     19723     19725     19724     19725     19726     19727
     19726     19728     19727     19728     19729     19730     19729     19731
     19730     19731     19732     19733     19732     19734     19733     19734
     19735     19736     19735     19737     19736     19737     19738     19739
     19738     19740     19739     19740     19741     19742     19741     19743
     19742     19743     19744     19745     19744     19746     19745     19746
     19747     19748     19747     19749     19748     19749     19750     19751
     19750     19752     19751     19752     19753     19754     19753     19755
     19754     19755     19756     19757     19756     19758     19757     19758
     19759     19760     19759     19761     19760     19761     19762     19763
     19762     19764     19763     19764     19765     19766     19765     19767
     19766     19767     19768     19769     19768     19770     19769     19770
     19771     19772     19771     19773     19772     19773     19774     19775
     19774     19776     19775     19776     19777     19778     19777     19779
     19778     19779     19780     19781     19780     19782     19781     19782
     19783     19784     19783     19785     19784     19785     19786     19787
     19786     19788     19787     19788     19789     19790     19789     19791
     19790     19791     19792     19793     19792     19794     19793     19794
     19795     19796     19795     19797     19796     19797     19798     19799
     19798     19800     19799     19800     19801     19802     19801     19803
     19802     19803     19804     19805     19804     19806     19805     19806
     19807     19808     19807     19809     19808     19809     19810     19811
     19810     19812     19811     19812     19813     19814     19813     19815
     19814     19815     19816     19817     19816     19818     19817     19818
     19819     19820     19819     19821     19820     19821     19822     19823
     19822     19824     19823     19824     19825     19826     19825     19827
     19826     19827     19828     19829     19828     19830     19829     19830
     19831     19832     19831     19833     19832     19833     19834     19835
     19834     19836     19835     19836     19837     19838     19837     19839
     19838     19839     19840     19841     19840     19842     19841     19842
     19843     19844     19843     19845     19844     19845     19846     19847
     19846     19848     19847     19848     19849     19850     19849     19851
     19850     19851     19852     19853     19852     19854     19853     19854
     19855     19856     19855     19857     19856     19857     19858     19859
     19858     19860     19859     19860     19861     19862     19861     19863
     19862     19863     19864     19865     19864     19866     19865     19866
     19867     19868     19867     19869     19868     19869     19870     19871
     19870     19872     19871     19872     19873     19874     19873     19875
     19874     19875     19876     19877     19876     19878     19877     19878
     19879     19880     19879     19881     19880     19881     19882     19883
     19882     19884     19883     19884     19885     19886     19885     19887
     19886     19887     19888     19889     19888     19890     19889     19890
     19891     19892     19891     19893     19892     19893     19894     19895
     19894     19896     19895     19896     19897     19898     19897     19899
     19898     19899     19900     19901     19900     19902     19901     19902
     19903     19904     19903     19905     19904     19905     19906     19907
     19906     19908     19907     19908     19909     19910     19909     19911
     19910     19911     19912     19913     19912     19914     19913     19914
     19915     19916     19915     19917     19916     19917     19918     19919
     19918     19920     19919     19920     19921     19922     19921     19923
     19922     19923     19924     19925     19924     19926     19925     19926
     19927     19928     19927     19929     19928     19929     19930     19931
     19930     19932     19931     19932     19933     19934     19933     19935
     19934     19935     19936     19937     19936     19938     19937     19938
     19939     19940     19939     19941     19940     19941     19942     19943
     19942     19944     19943     19944     19945     19946     19945     19947
     19946     19947     19948     19949     19948     19950     19949     19950
     19951     19952     19951     19953     19952     19953     19954     19955
     19954     19956     19955     19956     19957     19958     19957     19959
     19958     19959     19960     19961     19960     19962     19961     19962
     19963     19964     19963     19965     19964     19965     19966     19967
     19966     19968     19967     19968     19969     19970     19969     19971
     19970     19971     19972     19973     19972     19974     19973     19974
     19975     19976     19975     19977     19976     19977     19978     19979
     19978     19980     19979     19980     19981     19982     19981     19983
     19982     19983     19984     19985     19984     19986     19985     19986
     19987     19988     19987     19989     19988     19989     19990     19991
     19990     19992     19991     19992     19993     19994     19993     19995
     19994     19995     19996     19997     19996     19998     19997     19998
     19999     20000     19999     20001     20000     20001     20002     20003
     20002     20004     20003     20004     20005     20006     20005     20007
     20006     20007     20008     20009     20008     20010     20009     20010
     20011     20012     20011     20013     20012     20013     20014     20015
     20014     20016     20015     20016     20017     20018     20017     20019
     20018     20019     20020     20021     20020     20022     20021     20022
     20023     20024     20023     20025     20024     20025     20026     20027
     20026     20028     20027     20028     20029     20030     20029     20031
     20030     20031     20032     20033     20032     20034     20033     20034
     20035     20036     20035     20037     20036     20037     20038     20039
     20038     20040     20039     20040     20041     20042     20041     20043
     20042     20043     20044     20045     20044     20046     20045     20046
     20047     20048     20047     20049     20048     20049     20050     20051
     20050     20052     20051     20052     20053     20054     20053     20055
     20054     20055     20056     20057     20056     20058     20057     20058
     20059     20060     20059     20061     20060     20061     20062     20063
     20062     20064     20063     20064     20065     20066     20065     20067
     20066     20067     20068     20069     20068     20070     20069     20070
     20071     20072     20071     20073     20072     20073     20074     20075
     20074     20076     20075     20076     20077     20078     20077     20079
     20078     20079     20080     20081     20080     20082     20081     20082
     20083     20084     20083     20085     20084     20085     20086     20087
     20086     20088     20087     20088     20089     20090     20089     20091
     20090     20091     20092     20093     20092     20094     20093     20094
     20095     20096     20095     20097     20096     20097     20098     20099
     20098     20100     20099     20100     20101     20102     20101     20103
     20102     20103     20104     20105     20104     20106     20105     20106
     20107     20108     20107     20109     20108     20109     20110     20111
     20110     20112     20111     20112     20113     20114     20113     20115
     20114     20115     20116     20117     20116     20118     20117     20118
     20119     20120     20119     20121     20120     20121     20122     20123
     20122     20124     20123     20124     20125     20126     20125     20127
     20126     20127     20128     20129     20128     20130     20129     20130
     20131     20132     20131     20133     20132     20133     20134     20135
     20134     20136     20135     20136     20137     20138     20137     20139
     20138     20139     20140     20141     20140     20142     20141     20142
     20143     20144     20143     20145     20144     20145     20146     20147
     20146     20148     20147     20148     20149     20150     20149     20151
     20150     20151     20152     20153     20152     20154     20153     20154
     20155     20156     20155     20157     20156     20157     20158     20159
     20158     20160     20159     20160     20161     20162     20161     20163
     20162     20163     20164     20165     20164     20166     20165     20166
     20167     20168     20167     20169     20168     20169     20170     20171
     20170     20172     20171     20172     20173     20174     20173     20175
     20174     20175     20176     20177     20176     20178     20177     20178
     20179     20180     20179     20181     20180     20181     20182     20183
     20182     20184     20183     20184     20185     20186     20185     20187
     20186     20187     20188     20189     20188     20190     20189     20190
     20191     20192     20191     20193     20192     20193     20194     20195
     20194     20196     20195     20196     20197     20198     20197     20199
     20198     20199     20200     20201     20200     20202     20201     20202
     20203     20204     20203     20205     20204     20205     20206     20207
     20206     20208     20207     20208     20209     20210     20209     20211
     20210     20211     20212     20213     20212     20214     20213     20214
     20215     20216     20215     20217     20216     20217     20218     20219
     20218     20220     20219     20220     20221     20222     20221     20223
     20222     20223     20224     20225     20224     20226     20225     20226
     20227     20228     20227     20229     20228     20229     20230     20231
     20230     20232     20231     20232     20233     20234     20233     20235
     20234     20235     20236     20237     20236     20238     20237     20238
     20239     20240     20239     20241     20240     20241     20242     20243
     20242     20244     20243     20244     20245     20246     20245     20247
     20246     20247     20248     20249     20248     20250     20249     20250
     20251     20252     20251     20253     20252     20253     20254     20255
     20254     20256     20255     20256     20257     20258     20257     20259
     20258     20259     20260     20261     20260     20262     20261     20262
     20263     20264     20263     20265     20264     20265     20266     20267
     20266     20268     20267     20268     20269     20270     20269     20271
     20270     20271     20272     20273     20272     20274     20273     20274
     20275     20276     20275     20277     20276     20277     20278     20279
     20278     20280     20279     20280     20281     20282     20281     20283
     20282     20283     20284     20285     20284     20286     20285     20286
     20287     20288     20287     20289     20288     20289     20290     20291
     20290     20292     20291     20292     20293     20294     20293     20295
     20294     20295     20296     20297     20296     20298     20297     20298
     20299     20300     20299     20301     20300     20301     20302     20303
     20302     20304     20303     20304     20305     20306     20305     20307
     20306     20307     20308     20309     20308     20310     20309     20310
     20311     20312     20311     20313     20312     20313     20314     20315
     20314     20316     20315     20316     20317     20318     20317     20319
     20318     20319     20320     20321     20320     20322     20321     20322
     20323     20324     20323     20325     20324     20325     20326     20327
     20326     20328     20327     20328     20329     20330     20329     20331
     20330     20331     20332     20333     20332     20334     20333     20334
     20335     20336     20335     20337     20336     20337     20338     20339
     20338     20340     20339     20340     20341     20342     20341     20343
     20342     20343     20344     20345     20344     20346     20345     20346
     20347     20348     20347     20349     20348     20349     20350     20351
     20350     20352     20351     20352     20353     20354     20353     20355
     20354     20355     20356     20357     20356     20358     20357     20358
     20359     20360     20359     20361     20360     20361     20362     20363
     20362     20364     20363     20364     20365     20366     20365     20367
     20366     20367     20368     20369     20368     20370     20369     20370
     20371     20372     20371     20373     20372     20373     20374     20375
     20374     20376     20375     20376     20377     20378     20377     20379
     20378     20379     20380     20381     20380     20382     20381     20382
     20383     20384     20383     20385     20384     20385     20386     20387
     20386     20388     20387     20388     20389     20390     20389     20391
     20390     20391     20392     20393     20392     20394     20393     20394
     20395     20396     20395     20397     20396     20397     20398     20399
     20398     20400     20399     20400     20401     20402     20401     20403
     20402     20403     20404     20405     20404     20406     20405     20406
     20407     20408     20407     20409     20408     20409     20410     20411
     20410     20412     20411     20412     20413     20414     20413     20415
     20414     20415     20416     20417     20416     20418     20417     20418
     20419     20420     20419     20421     20420     20421     20422     20423
     20422     20424     20423     20424     20425     20426     20425     20427
     20426     20427     20428     20429     20428     20430     20429     20430
     20431     20432     20431     20433     20432     20433     20434     20435
     20434     20436     20435     20436     20437     20438     20437     20439
     20438     20439     20440     20441     20440     20442     20441     20442
     20443     20444     20443     20445     20444     20445     20446     20447
     20446     20448     20447     20448     20449     20450     20449     20451
     20450     20451     20452     20453     20452     20454     20453     20454
     20455     20456     20455     20457     20456     20457     20458     20459
     20458     20460     20459     20460     20461     20462     20461     20463
     20462     20463     20464     20465     20464     20466     20465     20466
     20467     20468     20467     20469     20468     20469     20470     20471
     20470     20472     20471     20472     20473     20474     20473     20475
     20474     20475     20476     20477     20476     20478     20477     20478
     20479     20480     20479     20481     20480     20481     20482     20483
     20482     20484     20483     20484     20485     20486     20485     20487
     20486     20487     20488     20489     20488     20490     20489     20490
     20491     20492     20491     20493     20492     20493     20494     20495
     20494     20496     20495     20496     20497     20498     20497     20499
     20498     20499     20500     20501     20500     20502     20501     20502
     20503     20504     20503     20505     20504     20505     20506     20507
     20506     20508     20507     20508     20509     20510     20509     20511
     20510     20511     20512     20513     20512     20514     20513     20514
     20515     20516     20515     20517     20516     20517     20518     20519
     20518     20520     20519     20520     20521     20522     20521     20523
     20522     20523     20524     20525     20524     20526     20525     20526
     20527     20528     20527     20529     20528     20529     20530     20531
     20530     20532     20531     20532     20533     20534     20533     20535
     20534     20535     20536     20537     20536     20538     20537     20538
     20539     20540     20539     20541     20540     20541     20542     20543
     20542     20544     20543     20544     20545     20546     20545     20547
     20546     20547     20548     20549     20548     20550     20549     20550
     20551     20552     20551     20553     20552     20553     20554     20555
     20554     20556     20555     20556     20557     20558     20557     20559
     20558     20559     20560     20561     20560     20562     20561     20562
     20563     20564     20563     20565     20564     20565     20566     20567
     20566     20568     20567     20568     20569     20570     20569     20571
     20570     20571     20572     20573     20572     20574     20573     20574
     20575     20576     20575     20577     20576     20577     20578     20579
     20578     20580     20579     20580     20581     20582     20581     20583
     20582     20583     20584     20585     20584     20586     20585     20586
     20587     20588     20587     20589     20588     20589     20590     20591
     20590     20592     20591     20592     20593     20594     20593     20595
     20594     20595     20596     20597     20596     20598     20597     20598
     20599     20600     20599     20601     20600     20601     20602     20603
     20602     20604     20603     20604     20605     20606     20605     20607
     20606     20607     20608     20609     20608     20610     20609     20610
     20611     20612     20611     20613     20612     20613     20614     20615
     20614     20616     20615     20616     20617     20618     20617     20619
     20618     20619     20620     20621     20620     20622     20621     20622
     20623     20624     20623     20625     20624     20625     20626     20627
     20626     20628     20627     20628     20629     20630     20629     20631
     20630     20631     20632     20633     20632     20634     20633     20634
     20635     20636     20635     20637     20636     20637     20638     20639
     20638     20640     20639     20640     20641     20642     20641     20643
     20642     20643     20644     20645     20644     20646     20645     20646
     20647     20648     20647     20649     20648     20649     20650     20651
     20650     20652     20651     20652     20653     20654     20653     20655
     20654     20655     20656     20657     20656     20658     20657     20658
     20659     20660     20659     20661     20660     20661     20662     20663
     20662     20664     20663     20664     20665     20666     20665     20667
     20666     20667     20668     20669     20668     20670     20669     20670
     20671     20672     20671     20673     20672     20673     20674     20675
     20674     20676     20675     20676     20677     20678     20677     20679
     20678     20679     20680     20681     20680     20682     20681     20682
     20683     20684     20683     20685     20684     20685     20686     20687
     20686     20688     20687     20688     20689     20690     20689     20691
     20690     20691     20692     20693     20692     20694     20693     20694
     20695     20696     20695     20697     20696     20697     20698     20699
     20698     20700     20699     20700     20701     20702     20701     20703
     20702     20703     20704     20705     20704     20706     20705     20706
     20707     20708     20707     20709     20708     20709     20710     20711
     20710     20712     20711     20712     20713     20714     20713     20715
     20714     20715     20716     20717     20716     20718     20717     20718
     20719     20720     20719     20721     20720     20721     20722     20723
     20722     20724     20723     20724     20725     20726     20725     20727
     20726     20727     20728     20729     20728     20730     20729     20730
     20731     20732     20731     20733     20732     20733     20734     20735
     20734     20736     20735     20736     20737     20738     20737     20739
     20738     20739     20740     20741     20740     20742     20741     20742
     20743     20744     20743     20745     20744     20745     20746     20747
     20746     20748     20747     20748     20749     20750     20749     20751
     20750     20751     20752     20753     20752     20754     20753     20754
     20755     20756     20755     20757     20756     20757     20758     20759
     20758     20760     20759     20760     20761     20762     20761     20763
     20762     20763     20764     20765     20764     20766     20765     20766
     20767     20768     20767     20769     20768     20769     20770     20771
     20770     20772     20771     20772     20773     20774     20773     20775
     20774     20775     20776     20777     20776     20778     20777     20778
     20779     20780     20779     20781     20780     20781     20782     20783
     20782     20784     20783     20784     20785     20786     20785     20787
     20786     20787     20788     20789     20788     20790     20789     20790
     20791     20792     20791     20793     20792     20793     20794     20795
     20794     20796     20795     20796     20797     20798     20797     20799
     20798     20799     20800     20801     20800     20802     20801     20802
     20803     20804     20803     20805     20804     20805     20806     20807
     20806     20808     20807     20808     20809     20810     20809     20811
     20810     20811     20812     20813     20812     20814     20813     20814
     20815     20816     20815     20817     20816     20817     20818     20819
     20818     20820     20819     20820     20821     20822     20821     20823
     20822     20823     20824     20825     20824     20826     20825     20826
     20827     20828     20827     20829     20828     20829     20830     20831
     20830     20832     20831     20832     20833     20834     20833     20835
     20834     20835     20836     20837     20836     20838     20837     20838
     20839     20840     20839     20841     20840     20841     20842     20843
     20842     20844     20843     20844     20845     20846     20845     20847
     20846     20847     20848     20849     20848     20850     20849     20850
     20851     20852     20851     20853     20852     20853     20854     20855
     20854     20856     20855     20856     20857     20858     20857     20859
     20858     20859     20860     20861     20860     20862     20861     20862
     20863     20864     20863     20865     20864     20865     20866     20867
     20866     20868     20867     20868     20869     20870     20869     20871
     20870     20871     20872     20873     20872     20874     20873     20874
     20875     20876     20875     20877     20876     20877     20878     20879
     20878     20880     20879     20880     20881     20882     20881     20883
     20882     20883     20884     20885     20884     20886     20885     20886
     20887     20888     20887     20889     20888     20889     20890     20891
     20890     20892     20891     20892     20893     20894     20893     20895
     20894     20895     20896     20897     20896     20898     20897     20898
     20899     20900     20899     20901     20900     20901     20902     20903
     20902     20904     20903     20904     20905     20906     20905     20907
     20906     20907     20908     20909     20908     20910     20909     20910
     20911     20912     20911     20913     20912     20913     20914     20915
     20914     20916     20915     20916     20917     20918     20917     20919
     20918     20919     20920     20921     20920     20922     20921     20922
     20923     20924     20923     20925     20924     20925     20926     20927
     20926     20928     20927     20928     20929     20930     20929     20931
     20930     20931     20932     20933     20932     20934     20933     20934
     20935     20936     20935     20937     20936     20937     20938     20939
     20938     20940     20939     20940     20941     20942     20941     20943
     20942     20943     20944     20945     20944     20946     20945     20946
     20947     20948     20947     20949     20948     20949     20950     20951
     20950     20952     20951     20952     20953     20954     20953     20955
     20954     20955     20956     20957     20956     20958     20957     20958
     20959     20960     20959     20961     20960     20961     20962     20963
     20962     20964     20963     20964     20965     20966     20965     20967
     20966     20967     20968     20969     20968     20970     20969     20970
     20971     20972     20971     20973     20972     20973     20974     20975
     20974     20976     20975     20976     20977     20978     20977     20979
     20978     20979     20980     20981     20980     20982     20981     20982
     20983     20984     20983     20985     20984     20985     20986     20987
     20986     20988     20987     20988     20989     20990     20989     20991
     20990     20991     20992     20993     20992     20994     20993     20994
     20995     20996     20995     20997     20996     20997     20998     20999
     20998     21000     20999     21000     21001     21002     21001     21003
     21002     21003     21004     21005     21004     21006     21005     21006
     21007     21008     21007     21009     21008     21009     21010     21011
     21010     21012     21011     21012     21013     21014     21013     21015
     21014     21015     21016     21017     21016     21018     21017     21018
     21019     21020     21019     21021     21020     21021     21022     21023
     21022     21024     21023     21024     21025     21026     21025     21027
     21026     21027     21028     21029     21028     21030     21029     21030
     21031     21032     21031     21033     21032     21033     21034     21035
     21034     21036     21035     21036     21037     21038     21037     21039
     21038     21039     21040     21041     21040     21042     21041     21042
     21043     21044     21043     21045     21044     21045     21046     21047
     21046     21048     21047     21048     21049     21050     21049     21051
     21050     21051     21052     21053     21052     21054     21053     21054
     21055     21056     21055     21057     21056     21057     21058     21059
     21058     21060     21059     21060     21061     21062     21061     21063
     21062     21063     21064     21065     21064     21066     21065     21066
     21067     21068     21067     21069     21068     21069     21070     21071
     21070     21072     21071     21072     21073     21074     21073     21075
     21074     21075     21076     21077     21076     21078     21077     21078
     21079     21080     21079     21081     21080     21081     21082     21083
     21082     21084     21083     21084     21085     21086     21085     21087
     21086     21087     21088     21089     21088     21090     21089     21090
     21091     21092     21091     21093     21092     21093     21094     21095
     21094     21096     21095     21096     21097     21098     21097     21099
     21098     21099     21100     21101     21100     21102     21101     21102
     21103     21104     21103     21105     21104     21105     21106     21107
     21106     21108     21107     21108     21109     21110     21109     21111
     21110     21111     21112     21113     21112     21114     21113     21114
     21115     21116     21115     21117     21116     21117     21118     21119
     21118     21120     21119     21120     21121     21122     21121     21123
     21122     21123     21124     21125     21124     21126     21125     21126
     21127     21128     21127     21129     21128     21129     21130     21131
     21130     21132     21131     21132     21133     21134     21133     21135
     21134     21135     21136     21137     21136     21138     21137     21138
     21139     21140     21139     21141     21140     21141     21142     21143
     21142     21144     21143     21144     21145     21146     21145     21147
     21146     21147     21148     21149     21148     21150     21149     21150
     21151     21152     21151     21153     21152     21153     21154     21155
     21154     21156     21155     21156     21157     21158     21157     21159
     21158     21159     21160     21161     21160     21162     21161     21162
     21163     21164     21163     21165     21164     21165     21166     21167
     21166     21168     21167     21168     21169     21170     21169     21171
     21170     21171     21172     21173     21172     21174     21173     21174
     21175     21176     21175     21177     21176     21177     21178     21179
     21178     21180     21179     21180     21181     21182     21181     21183
     21182     21183     21184     21185     21184     21186     21185     21186
     21187     21188     21187     21189     21188     21189     21190     21191
     21190     21192     21191     21192     21193     21194     21193     21195
     21194     21195     21196     21197     21196     21198     21197     21198
     21199     21200     21199     21201     21200     21201     21202     21203
     21202     21204     21203     21204     21205     21206     21205     21207
     21206     21207     21208     21209     21208     21210     21209     21210
     21211     21212     21211     21213     21212     21213     21214     21215
     21214     21216     21215     21216     21217     21218     21217     21219
     21218     21219     21220     21221     21220     21222     21221     21222
     21223     21224     21223     21225     21224     21225     21226     21227
     21226     21228     21227     21228     21229     21230     21229     21231
     21230     21231     21232     21233     21232     21234     21233     21234
     21235     21236     21235     21237     21236     21237     21238     21239
     21238     21240     21239     21240     21241     21242     21241     21243
     21242     21243     21244     21245     21244     21246     21245     21246
     21247     21248     21247     21249     21248     21249     21250     21251
     21250     21252     21251     21252     21253     21254     21253     21255
     21254     21255     21256     21257     21256     21258     21257     21258
     21259     21260     21259     21261     21260     21261     21262     21263
     21262     21264     21263     21264     21265     21266     21265     21267
     21266     21267     21268     21269     21268     21270     21269     21270
     21271     21272     21271     21273     21272     21273     21274     21275
     21274     21276     21275     21276     21277     21278     21277     21279
     21278     21279     21280     21281     21280     21282     21281     21282
     21283     21284     21283     21285     21284     21285     21286     21287
     21286     21288     21287     21288     21289     21290     21289     21291
     21290     21291     21292     21293     21292     21294     21293     21294
     21295     21296     21295     21297     21296     21297     21298     21299
     21298     21300     21299     21300     21301     21302     21301     21303
     21302     21303     21304     21305     21304     21306     21305     21306
     21307     21308     21307     21309     21308     21309     21310     21311
     21310     21312     21311     21312     21313     21314     21313     21315
     21314     21315     21316     21317     21316     21318     21317     21318
     21319     21320     21319     21321     21320     21321     21322     21323
     21322     21324     21323     21324     21325     21326     21325     21327
     21326     21327     21328     21329     21328     21330     21329     21330
     21331     21332     21331     21333     21332     21333     21334     21335
     21334     21336     21335     21336     21337     21338     21337     21339
     21338     21339     21340     21341     21340     21342     21341     21342
     21343     21344     21343     21345     21344     21345     21346     21347
     21346     21348     21347     21348     21349     21350     21349     21351
     21350     21351     21352     21353     21352     21354     21353     21354
     21355     21356     21355     21357     21356     21357     21358     21359
     21358     21360     21359     21360     21361     21362     21361     21363
     21362     21363     21364     21365     21364     21366     21365     21366
     21367     21368     21367     21369     21368     21369     21370     21371
     21370     21372     21371     21372     21373     21374     21373     21375
     21374     21375     21376     21377     21376     21378     21377     21378
     21379     21380     21379     21381     21380     21381     21382     21383
     21382     21384     21383     21384     21385     21386     21385     21387
     21386     21387     21388     21389     21388     21390     21389     21390
     21391     21392     21391     21393     21392     21393     21394     21395
     21394     21396     21395     21396     21397     21398     21397     21399
     21398     21399     21400     21401     21400     21402     21401     21402
     21403     21404     21403     21405     21404     21405     21406     21407
     21406     21408     21407     21408     21409     21410     21409     21411
     21410     21411     21412     21413     21412     21414     21413     21414
     21415     21416     21415     21417     21416     21417     21418     21419
     21418     21420     21419     21420     21421     21422     21421     21423
     21422     21423     21424     21425     21424     21426     21425     21426
     21427     21428     21427     21429     21428     21429     21430     21431
     21430     21432     21431     21432     21433     21434     21433     21435
     21434     21435     21436     21437     21436     21438     21437     21438
     21439     21440     21439     21441     21440     21441     21442     21443
     21442     21444     21443     21444     21445     21446     21445     21447
     21446     21447     21448     21449     21448     21450     21449     21450
     21451     21452     21451     21453     21452     21453     21454     21455
     21454     21456     21455     21456     21457     21458     21457     21459
     21458     21459     21460     21461     21460     21462     21461     21462
     21463     21464     21463     21465     21464     21465     21466     21467
     21466     21468     21467     21468     21469     21470     21469     21471
     21470     21471     21472     21473     21472     21474     21473     21474
     21475     21476     21475     21477     21476     21477     21478     21479
     21478     21480     21479     21480     21481     21482     21481     21483
     21482     21483     21484     21485     21484     21486     21485     21486
     21487     21488     21487     21489     21488     21489     21490     21491
     21490     21492     21491     21492     21493     21494     21493     21495
     21494     21495     21496     21497     21496     21498     21497     21498
     21499     21500     21499     21501     21500     21501     21502     21503
     21502     21504     21503     21504     21505     21506     21505     21507
     21506     21507     21508     21509     21508     21510     21509     21510
     21511     21512     21511     21513     21512     21513     21514     21515
     21514     21516     21515     21516     21517     21518     21517     21519
     21518     21519     21520     21521     21520     21522     21521     21522
     21523     21524     21523     21525     21524     21525     21526     21527
     21526     21528     21527     21528     21529     21530     21529     21531
     21530     21531     21532     21533     21532     21534     21533     21534
     21535     21536     21535     21537     21536     21537     21538     21539
     21538     21540     21539     21540     21541     21542     21541     21543
     21542     21543     21544     21545     21544     21546     21545     21546
     21547     21548     21547     21549     21548     21549     21550     21551
     21550     21552     21551     21552     21553     21554     21553     21555
     21554     21555     21556     21557     21556     21558     21557     21558
     21559     21560     21559     21561     21560     21561     21562     21563
     21562     21564     21563     21564     21565     21566     21565     21567
     21566     21567     21568     21569     21568     21570     21569     21570
     21571     21572     21571     21573     21572     21573     21574     21575
     21574     21576     21575     21576     21577     21578     21577     21579
     21578     21579     21580     21581     21580     21582     21581     21582
     21583     21584     21583     21585     21584     21585     21586     21587
     21586     21588     21587     21588     21589     21590     21589     21591
     21590     21591     21592     21593     21592     21594     21593     21594
     21595     21596     21595     21597     21596     21597     21598     21599
     21598     21600     21599     21600     21601     21602     21601     21603
     21602     21603     21604     21605     21604     21606     21605     21606
     21607     21608     21607     21609     21608     21609     21610     21611
     21610     21612     21611     21612     21613     21614     21613     21615
     21614     21615     21616     21617     21616     21618     21617     21618
     21619     21620     21619     21621     21620     21621     21622     21623
     21622     21624     21623     21624     21625     21626     21625     21627
     21626     21627     21628     21629     21628     21630     21629     21630
     21631     21632     21631     21633     21632     21633     21634     21635
     21634     21636     21635     21636     21637     21638     21637     21639
     21638     21639     21640     21641     21640     21642     21641     21642
     21643     21644     21643     21645     21644     21645     21646     21647
     21646     21648     21647     21648     21649     21650     21649     21651
     21650     21651     21652     21653     21652     21654     21653     21654
     21655     21656     21655     21657     21656     21657     21658     21659
     21658     21660     21659     21660     21661     21662     21661     21663
     21662     21663     21664     21665     21664     21666     21665     21666
     21667     21668     21667     21669     21668     21669     21670     21671
     21670     21672     21671     21672     21673     21674     21673     21675
     21674     21675     21676     21677     21676     21678     21677     21678
     21679     21680     21679     21681     21680     21681     21682     21683
     21682     21684     21683     21684     21685     21686     21685     21687
     21686     21687     21688     21689     21688     21690     21689     21690
     21691     21692     21691     21693     21692     21693     21694     21695
     21694     21696     21695     21696     21697     21698     21697     21699
     21698     21699     21700     21701     21700     21702     21701     21702
     21703     21704     21703     21705     21704     21705     21706     21707
     21706     21708     21707     21708     21709     21710     21709     21711
     21710     21711     21712     21713     21712     21714     21713     21714
     21715     21716     21715     21717     21716     21717     21718     21719
     21718     21720     21719     21720     21721     21722     21721     21723
     21722     21723     21724     21725     21724     21726     21725     21726
     21727     21728     21727     21729     21728     21729     21730     21731
     21730     21732     21731     21732     21733     21734     21733     21735
     21734     21735     21736     21737     21736     21738     21737     21738
     21739     21740     21739     21741     21740     21741     21742     21743
     21742     21744     21743     21744     21745     21746     21745     21747
     21746     21747     21748     21749     21748     21750     21749     21750
     21751     21752     21751     21753     21752     21753     21754     21755
     21754     21756     21755     21756     21757     21758     21757     21759
     21758     21759     21760     21761     21760     21762     21761     21762
     21763     21764     21763     21765     21764     21765     21766     21767
     21766     21768     21767     21768     21769     21770     21769     21771
     21770     21771     21772     21773     21772     21774     21773     21774
     21775     21776     21775     21777     21776     21777     21778     21779
     21778     21780     21779     21780     21781     21782     21781     21783
     21782     21783     21784     21785     21784     21786     21785     21786
     21787     21788     21787     21789     21788     21789     21790     21791
     21790     21792     21791     21792     21793     21794     21793     21795
     21794     21795     21796     21797     21796     21798     21797     21798
     21799     21800     21799     21801     21800     21801     21802     21803
     21802     21804     21803     21804     21805     21806     21805     21807
     21806     21807     21808     21809     21808     21810     21809     21810
     21811     21812     21811     21813     21812     21813     21814     21815
     21814     21816     21815     21816     21817     21818     21817     21819
     21818     21819     21820     21821     21820     21822     21821     21822
     21823     21824     21823     21825     21824     21825     21826     21827
     21826     21828     21827     21828     21829     21830     21829     21831
     21830     21831     21832     21833     21832     21834     21833     21834
     21835     21836     21835     21837     21836     21837     21838     21839
     21838     21840     21839     21840     21841     21842     21841     21843
     21842     21843     21844     21845     21844     21846     21845     21846
     21847     21848     21847     21849     21848     21849     21850     21851
     21850     21852     21851     21852     21853     21854     21853     21855
     21854     21855     21856     21857     21856     21858     21857     21858
     21859     21860     21859     21861     21860     21861     21862     21863
     21862     21864     21863     21864     21865     21866     21865     21867
     21866     21867     21868     21869     21868     21870     21869     21870
     21871     21872     21871     21873     21872     21873     21874     21875
     21874     21876     21875     21876     21877     21878     21877     21879
     21878     21879     21880     21881     21880     21882     21881     21882
     21883     21884     21883     21885     21884     21885     21886     21887
     21886     21888     21887     21888     21889     21890     21889     21891
     21890     21891     21892     21893     21892     21894     21893     21894
     21895     21896     21895     21897     21896     21897     21898     21899
     21898     21900     21899     21900     21901     21902     21901     21903
     21902     21903     21904     21905     21904     21906     21905     21906
     21907     21908     21907     21909     21908     21909     21910     21911
     21910     21912     21911     21912     21913     21914     21913     21915
     21914     21915     21916     21917     21916     21918     21917     21918
     21919     21920     21919     21921     21920     21921     21922     21923
     21922     21924     21923     21924     21925     21926     21925     21927
     21926     21927     21928     21929     21928     21930     21929     21930
     21931     21932     21931     21933     21932     21933     21934     21935
     21934     21936     21935     21936     21937     21938     21937     21939
     21938     21939     21940     21941     21940     21942     21941     21942
     21943     21944     21943     21945     21944     21945     21946     21947
     21946     21948     21947     21948     21949     21950     21949     21951
     21950     21951     21952     21953     21952     21954     21953     21954
     21955     21956     21955     21957     21956     21957     21958     21959
     21958     21960     21959     21960     21961     21962     21961     21963
     21962     21963     21964     21965     21964     21966     21965     21966
     21967     21968     21967     21969     21968     21969     21970     21971
     21970     21972     21971     21972     21973     21974     21973     21975
     21974     21975     21976     21977     21976     21978     21977     21978
     21979     21980     21979     21981     21980     21981     21982     21983
     21982     21984     21983     21984     21985     21986     21985     21987
     21986     21987     21988     21989     21988     21990     21989     21990
     21991     21992     21991     21993     21992     21993     21994     21995
     21994     21996     21995     21996     21997     21998     21997     21999
     21998     21999     22000     22001     22000     22002     22001     22002
     22003     22004     22003     22005     22004     22005     22006     22007
     22006     22008     22007     22008     22009     22010     22009     22011
     22010     22011     22012     22013     22012     22014     22013     22014
     22015     22016     22015     22017     22016     22017     22018     22019
     22018     22020     22019     22020     22021     22022     22021     22023
     22022     22023     22024     22025     22024     22026     22025     22026
     22027     22028     22027     22029     22028     22029     22030     22031
     22030     22032     22031     22032     22033     22034     22033     22035
     22034     22035     22036     22037     22036     22038     22037     22038
     22039     22040     22039     22041     22040     22041     22042     22043
     22042     22044     22043     22044     22045     22046     22045     22047
     22046     22047     22048     22049     22048     22050     22049     22050
     22051     22052     22051     22053     22052     22053     22054     22055
     22054     22056     22055     22056     22057     22058     22057     22059
     22058     22059     22060     22061     22060     22062     22061     22062
     22063     22064     22063     22065     22064     22065     22066     22067
     22066     22068     22067     22068     22069     22070     22069     22071
     22070     22071     22072     22073     22072     22074     22073     22074
     22075     22076     22075     22077     22076     22077     22078     22079
     22078     22080     22079     22080     22081     22082     22081     22083
     22082     22083     22084     22085     22084     22086     22085     22086
     22087     22088     22087     22089     22088     22089     22090     22091
     22090     22092     22091     22092     22093     22094     22093     22095
     22094     22095     22096     22097     22096     22098     22097     22098
     22099     22100     22099     22101     22100     22101     22102     22103
     22102     22104     22103     22104     22105     22106     22105     22107
     22106     22107     22108     22109     22108     22110     22109     22110
     22111     22112     22111     22113     22112     22113     22114     22115
     22114     22116     22115     22116     22117     22118     22117     22119
     22118     22119     22120     22121     22120     22122     22121     22122
     22123     22124     22123     22125     22124     22125     22126     22127
     22126     22128     22127     22128     22129     22130     22129     22131
     22130     22131     22132     22133     22132     22134     22133     22134
     22135     22136     22135     22137     22136     22137     22138     22139
     22138     22140     22139     22140     22141     22142     22141     22143
     22142     22143     22144     22145     22144     22146     22145     22146
     22147     22148     22147     22149     22148     22149     22150     22151
     22150     22152     22151     22152     22153     22154     22153     22155
     22154     22155     22156     22157     22156     22158     22157     22158
     22159     22160     22159     22161     22160     22161     22162     22163
     22162     22164     22163     22164     22165     22166     22165     22167
     22166     22167     22168     22169     22168     22170     22169     22170
     22171     22172     22171     22173     22172     22173     22174     22175
     22174     22176     22175     22176     22177     22178     22177     22179
     22178     22179     22180     22181     22180     22182     22181     22182
     22183     22184     22183     22185     22184     22185     22186     22187
     22186     22188     22187     22188     22189     22190     22189     22191
     22190     22191     22192     22193     22192     22194     22193     22194
     22195     22196     22195     22197     22196     22197     22198     22199
     22198     22200     22199     22200     22201     22202     22201     22203
     22202     22203     22204     22205     22204     22206     22205     22206
     22207     22208     22207     22209     22208     22209     22210     22211
     22210     22212     22211     22212     22213     22214     22213     22215
     22214     22215     22216     22217     22216     22218     22217     22218
     22219     22220     22219     22221     22220     22221     22222     22223
     22222     22224     22223     22224     22225     22226     22225     22227
     22226     22227     22228     22229     22228     22230     22229     22230
     22231     22232     22231     22233     22232     22233     22234     22235
     22234     22236     22235     22236     22237     22238     22237     22239
     22238     22239     22240     22241     22240     22242     22241     22242
     22243     22244     22243     22245     22244     22245     22246     22247
     22246     22248     22247     22248     22249     22250     22249     22251
     22250     22251     22252     22253     22252     22254     22253     22254
     22255     22256     22255     22257     22256     22257     22258     22259
     22258     22260     22259     22260     22261     22262     22261     22263
     22262     22263     22264     22265     22264     22266     22265     22266
     22267     22268     22267     22269     22268     22269     22270     22271
     22270     22272     22271     22272     22273     22274     22273     22275
     22274     22275     22276     22277     22276     22278     22277     22278
     22279     22280     22279     22281     22280     22281     22282     22283
     22282     22284     22283     22284     22285     22286     22285     22287
     22286     22287     22288     22289     22288     22290     22289     22290
     22291     22292     22291     22293     22292     22293     22294     22295
     22294     22296     22295     22296     22297     22298     22297     22299
     22298     22299     22300     22301     22300     22302     22301     22302
     22303     22304     22303     22305     22304     22305     22306     22307
     22306     22308     22307     22308     22309     22310     22309     22311
     22310     22311     22312     22313     22312     22314     22313     22314
     22315     22316     22315     22317     22316     22317     22318     22319
     22318     22320     22319     22320     22321     22322     22321     22323
     22322     22323     22324     22325     22324     22326     22325     22326
     22327     22328     22327     22329     22328     22329     22330     22331
     22330     22332     22331     22332     22333     22334     22333     22335
     22334     22335     22336     22337     22336     22338     22337     22338
     22339     22340     22339     22341     22340     22341     22342     22343
     22342     22344     22343     22344     22345     22346     22345     22347
     22346     22347     22348     22349     22348     22350     22349     22350
     22351     22352     22351     22353     22352     22353     22354     22355
     22354     22356     22355     22356     22357     22358     22357     22359
     22358     22359     22360     22361     22360     22362     22361     22362
     22363     22364     22363     22365     22364     22365     22366     22367
     22366     22368     22367     22368     22369     22370     22369     22371
     22370     22371     22372     22373     22372     22374     22373     22374
     22375     22376     22375     22377     22376     22377     22378     22379
     22378     22380     22379     22380     22381     22382     22381     22383
     22382     22383     22384     22385     22384     22386     22385     22386
     22387     22388     22387     22389     22388     22389     22390     22391
     22390     22392     22391     22392     22393     22394     22393     22395
     22394     22395     22396     22397     22396     22398     22397     22398
     22399     22400     22399     22401     22400     22401     22402     22403
     22402     22404     22403     22404     22405     22406     22405     22407
     22406     22407     22408     22409     22408     22410     22409     22410
     22411     22412     22411     22413     22412     22413     22414     22415
     22414     22416     22415     22416     22417     22418     22417     22419
     22418     22419     22420     22421     22420     22422     22421     22422
     22423     22424     22423     22425     22424     22425     22426     22427
     22426     22428     22427     22428     22429     22430     22429     22431
     22430     22431     22432     22433     22432     22434     22433     22434
     22435     22436     22435     22437     22436     22437     22438     22439
     22438     22440     22439     22440     22441     22442     22441     22443
     22442     22443     22444     22445     22444     22446     22445     22446
     22447     22448     22447     22449     22448     22449     22450     22451
     22450     22452     22451     22452     22453     22454     22453     22455
     22454     22455     22456     22457     22456     22458     22457     22458
     22459     22460     22459     22461     22460     22461     22462     22463
     22462     22464     22463     22464     22465     22466     22465     22467
     22466     22467     22468     22469     22468     22470     22469     22470
     22471     22472     22471     22473     22472     22473     22474     22475
     22474     22476     22475     22476     22477     22478     22477     22479
     22478     22479     22480     22481     22480     22482     22481     22482
     22483     22484     22483     22485     22484     22485     22486     22487
     22486     22488     22487     22488     22489     22490     22489     22491
     22490     22491     22492     22493     22492     22494     22493     22494
     22495     22496     22495     22497     22496     22497     22498     22499
     22498     22500     22499     22500     22501     22502     22501     22503
     22502     22503     22504     22505     22504     22506     22505     22506
     22507     22508     22507     22509     22508     22509     22510     22511
     22510     22512     22511     22512     22513     22514     22513     22515
     22514     22515     22516     22517     22516     22518     22517     22518
     22519     22520     22519     22521     22520     22521     22522     22523
     22522     22524     22523     22524     22525     22526     22525     22527
     22526     22527     22528     22529     22528     22530     22529     22530
     22531     22532     22531     22533     22532     22533     22534     22535
     22534     22536     22535     22536     22537     22538     22537     22539
     22538     22539     22540     22541     22540     22542     22541     22542
     22543     22544     22543     22545     22544     22545     22546     22547
     22546     22548     22547     22548     22549     22550     22549     22551
     22550     22551     22552     22553     22552     22554     22553     22554
     22555     22556     22555     22557     22556     22557     22558     22559
     22558     22560     22559     22560     22561     22562     22561     22563
     22562     22563     22564     22565     22564     22566     22565     22566
     22567     22568     22567     22569     22568     22569     22570     22571
     22570     22572     22571     22572     22573     22574     22573     22575
     22574     22575     22576     22577     22576     22578     22577     22578
     22579     22580     22579     22581     22580     22581     22582     22583
     22582     22584     22583     22584     22585     22586     22585     22587
     22586     22587     22588     22589     22588     22590     22589     22590
     22591     22592     22591     22593     22592     22593     22594     22595
     22594     22596     22595     22596     22597     22598     22597     22599
     22598     22599     22600     22601     22600     22602     22601     22602
     22603     22604     22603     22605     22604     22605     22606     22607
     22606     22608     22607     22608     22609     22610     22609     22611
     22610     22611     22612     22613     22612     22614     22613     22614
     22615     22616     22615     22617     22616     22617     22618     22619
     22618     22620     22619     22620     22621     22622     22621     22623
     22622     22623     22624     22625     22624     22626     22625     22626
     22627     22628     22627     22629     22628     22629     22630     22631
     22630     22632     22631     22632     22633     22634     22633     22635
     22634     22635     22636     22637     22636     22638     22637     22638
     22639     22640     22639     22641     22640     22641     22642     22643
     22642     22644     22643     22644     22645     22646     22645     22647
     22646     22647     22648     22649     22648     22650     22649     22650
     22651     22652     22651     22653     22652     22653     22654     22655
     22654     22656     22655     22656     22657     22658     22657     22659
     22658     22659     22660     22661     22660     22662     22661     22662
     22663     22664     22663     22665     22664     22665     22666     22667
     22666     22668     22667     22668     22669     22670     22669     22671
     22670     22671     22672     22673     22672     22674     22673     22674
     22675     22676     22675     22677     22676     22677     22678     22679
     22678     22680     22679     22680     22681     22682     22681     22683
     22682     22683     22684     22685     22684     22686     22685     22686
     22687     22688     22687     22689     22688     22689     22690     22691
     22690     22692     22691     22692     22693     22694     22693     22695
     22694     22695     22696     22697     22696     22698     22697     22698
     22699     22700     22699     22701     22700     22701     22702     22703
     22702     22704     22703     22704     22705     22706     22705     22707
     22706     22707     22708     22709     22708     22710     22709     22710
     22711     22712     22711     22713     22712     22713     22714     22715
     22714     22716     22715     22716     22717     22718     22717     22719
     22718     22719     22720     22721     22720     22722     22721     22722
     22723     22724     22723     22725     22724     22725     22726     22727
     22726     22728     22727     22728     22729     22730     22729     22731
     22730     22731     22732     22733     22732     22734     22733     22734
     22735     22736     22735     22737     22736     22737     22738     22739
     22738     22740     22739     22740     22741     22742     22741     22743
     22742     22743     22744     22745     22744     22746     22745     22746
     22747     22748     22747     22749     22748     22749     22750     22751
     22750     22752     22751     22752     22753     22754     22753     22755
     22754     22755     22756     22757     22756     22758     22757     22758
     22759     22760     22759     22761     22760     22761     22762     22763
     22762     22764     22763     22764     22765     22766     22765     22767
     22766     22767     22768     22769     22768     22770     22769     22770
     22771     22772     22771     22773     22772     22773     22774     22775
     22774     22776     22775     22776     22777     22778     22777     22779
     22778     22779     22780     22781     22780     22782     22781     22782
     22783     22784     22783     22785     22784     22785     22786     22787
     22786     22788     22787     22788     22789     22790     22789     22791
     22790     22791     22792     22793     22792     22794     22793     22794
     22795     22796     22795     22797     22796     22797     22798     22799
     22798     22800     22799     22800     22801     22802     22801     22803
     22802     22803     22804     22805     22804     22806     22805     22806
     22807     22808     22807     22809     22808     22809     22810     22811
     22810     22812     22811     22812     22813     22814     22813     22815
     22814     22815     22816     22817     22816     22818     22817     22818
     22819     22820     22819     22821     22820     22821     22822     22823
     22822     22824     22823     22824     22825     22826     22825     22827
     22826     22827     22828     22829     22828     22830     22829     22830
     22831     22832     22831     22833     22832     22833     22834     22835
     22834     22836     22835     22836     22837     22838     22837     22839
     22838     22839     22840     22841     22840     22842     22841     22842
     22843     22844     22843     22845     22844     22845     22846     22847
     22846     22848     22847     22848     22849     22850     22849     22851
     22850     22851     22852     22853     22852     22854     22853     22854
     22855     22856     22855     22857     22856     22857     22858     22859
     22858     22860     22859     22860     22861     22862     22861     22863
     22862     22863     22864     22865     22864     22866     22865     22866
     22867     22868     22867     22869     22868     22869     22870     22871
     22870     22872     22871     22872     22873     22874     22873     22875
     22874     22875     22876     22877     22876     22878     22877     22878
     22879     22880     22879     22881     22880     22881     22882     22883
     22882     22884     22883     22884     22885     22886     22885     22887
     22886     22887     22888     22889     22888     22890     22889     22890
     22891     22892     22891     22893     22892     22893     22894     22895
     22894     22896     22895     22896     22897     22898     22897     22899
     22898     22899     22900     22901     22900     22902     22901     22902
     22903     22904     22903     22905     22904     22905     22906     22907
     22906     22908     22907     22908     22909     22910     22909     22911
     22910     22911     22912     22913     22912     22914     22913     22914
     22915     22916     22915     22917     22916     22917     22918     22919
     22918     22920     22919     22920     22921     22922     22921     22923
     22922     22923     22924     22925     22924     22926     22925     22926
     22927     22928     22927     22929     22928     22929     22930     22931
     22930     22932     22931     22932     22933     22934     22933     22935
     22934     22935     22936     22937     22936     22938     22937     22938
     22939     22940     22939     22941     22940     22941     22942     22943
     22942     22944     22943     22944     22945     22946     22945     22947
     22946     22947     22948     22949     22948     22950     22949     22950
     22951     22952     22951     22953     22952     22953     22954     22955
     22954     22956     22955     22956     22957     22958     22957     22959
     22958     22959     22960     22961     22960     22962     22961     22962
     22963     22964     22963     22965     22964     22965     22966     22967
     22966     22968     22967     22968     22969     22970     22969     22971
     22970     22971     22972     22973     22972     22974     22973     22974
     22975     22976     22975     22977     22976     22977     22978     22979
     22978     22980     22979     22980     22981     22982     22981     22983
     22982     22983     22984     22985     22984     22986     22985     22986
     22987     22988     22987     22989     22988     22989     22990     22991
     22990     22992     22991     22992     22993     22994     22993     22995
     22994     22995     22996     22997     22996     22998     22997     22998
     22999     23000     22999     23001     23000     23001     23002     23003
     23002     23004     23003     23004     23005     23006     23005     23007
     23006     23007     23008     23009     23008     23010     23009     23010
     23011     23012     23011     23013     23012     23013     23014     23015
     23014     23016     23015     23016     23017     23018     23017     23019
     23018     23019     23020     23021     23020     23022     23021     23022
     23023     23024     23023     23025     23024     23025     23026     23027
     23026     23028     23027     23028     23029     23030     23029     23031
     23030     23031     23032     23033     23032     23034     23033     23034
     23035     23036     23035     23037     23036     23037     23038     23039
     23038     23040     23039     23040     23041     23042     23041     23043
     23042     23043     23044     23045     23044     23046     23045     23046
     23047     23048     23047     23049     23048     23049     23050     23051
     23050     23052     23051     23052     23053     23054     23053     23055
     23054     23055     23056     23057     23056     23058     23057     23058
     23059     23060     23059     23061     23060     23061     23062     23063
     23062     23064     23063     23064     23065     23066     23065     23067
     23066     23067     23068     23069     23068     23070     23069     23070
     23071     23072     23071     23073     23072     23073     23074     23075
     23074     23076     23075     23076     23077     23078     23077     23079
     23078     23079     23080     23081     23080     23082     23081     23082
     23083     23084     23083     23085     23084     23085     23086     23087
     23086     23088     23087     23088     23089     23090     23089     23091
     23090     23091     23092     23093     23092     23094     23093     23094
     23095     23096     23095     23097     23096     23097     23098     23099
     23098     23100     23099     23100     23101     23102     23101     23103
     23102     23103     23104     23105     23104     23106     23105     23106
     23107     23108     23107     23109     23108     23109     23110     23111
     23110     23112     23111     23112     23113     23114     23113     23115
     23114     23115     23116     23117     23116     23118     23117     23118
     23119     23120     23119     23121     23120     23121     23122     23123
     23122     23124     23123     23124     23125     23126     23125     23127
     23126     23127     23128     23129     23128     23130     23129     23130
     23131     23132     23131     23133     23132     23133     23134     23135
     23134     23136     23135     23136     23137     23138     23137     23139
     23138     23139     23140     23141     23140     23142     23141     23142
     23143     23144     23143     23145     23144     23145     23146     23147
     23146     23148     23147     23148     23149     23150     23149     23151
     23150     23151     23152     23153     23152     23154     23153     23154
     23155     23156     23155     23157     23156     23157     23158     23159
     23158     23160     23159     23160     23161     23162     23161     23163
     23162     23163     23164     23165     23164     23166     23165     23166
     23167     23168     23167     23169     23168     23169     23170     23171
     23170     23172     23171     23172     23173     23174     23173     23175
     23174     23175     23176     23177     23176     23178     23177     23178
     23179     23180     23179     23181     23180     23181     23182     23183
     23182     23184     23183     23184     23185     23186     23185     23187
     23186     23187     23188     23189     23188     23190     23189     23190
     23191     23192     23191     23193     23192     23193     23194     23195
     23194     23196     23195     23196     23197     23198     23197     23199
     23198     23199     23200     23201     23200     23202     23201     23202
     23203     23204     23203     23205     23204     23205     23206     23207
     23206     23208     23207     23208     23209     23210     23209     23211
     23210     23211     23212     23213     23212     23214     23213     23214
     23215     23216     23215     23217     23216     23217     23218     23219
     23218     23220     23219     23220     23221     23222     23221     23223
     23222     23223     23224     23225     23224     23226     23225     23226
     23227     23228     23227     23229     23228     23229     23230     23231
     23230     23232     23231     23232     23233     23234     23233     23235
     23234     23235     23236     23237     23236     23238     23237     23238
     23239     23240     23239     23241     23240     23241     23242     23243
     23242     23244     23243     23244     23245     23246     23245     23247
     23246     23247     23248     23249     23248     23250     23249     23250
     23251     23252     23251     23253     23252     23253     23254     23255
     23254     23256     23255     23256     23257     23258     23257     23259
     23258     23259     23260     23261     23260     23262     23261     23262
     23263     23264     23263     23265     23264     23265     23266     23267
     23266     23268     23267     23268     23269     23270     23269     23271
     23270     23271     23272     23273     23272     23274     23273     23274
     23275     23276     23275     23277     23276     23277     23278     23279
     23278     23280     23279     23280     23281     23282     23281     23283
     23282     23283     23284     23285     23284     23286     23285     23286
     23287     23288     23287     23289     23288     23289     23290     23291
     23290     23292     23291     23292     23293     23294     23293     23295
     23294     23295     23296     23297     23296     23298     23297     23298
     23299     23300     23299     23301     23300     23301     23302     23303
     23302     23304     23303     23304     23305     23306     23305     23307
     23306     23307     23308     23309     23308     23310     23309     23310
     23311     23312     23311     23313     23312     23313     23314     23315
     23314     23316     23315     23316     23317     23318     23317     23319
     23318     23319     23320     23321     23320     23322     23321     23322
     23323     23324     23323     23325     23324     23325     23326     23327
     23326     23328     23327     23328     23329     23330     23329     23331
     23330     23331     23332     23333     23332     23334     23333     23334
     23335     23336     23335     23337     23336     23337     23338     23339
     23338     23340     23339     23340     23341     23342     23341     23343
     23342     23343     23344     23345     23344     23346     23345     23346
     23347     23348     23347     23349     23348     23349     23350     23351
     23350     23352     23351     23352     23353     23354     23353     23355
     23354     23355     23356     23357     23356     23358     23357     23358
     23359     23360     23359     23361     23360     23361     23362     23363
     23362     23364     23363     23364     23365     23366     23365     23367
     23366     23367     23368     23369     23368     23370     23369     23370
     23371     23372     23371     23373     23372     23373     23374     23375
     23374     23376     23375     23376     23377     23378     23377     23379
     23378     23379     23380     23381     23380     23382     23381     23382
     23383     23384     23383     23385     23384     23385     23386     23387
     23386     23388     23387     23388     23389     23390     23389     23391
     23390     23391     23392     23393     23392     23394     23393     23394
     23395     23396     23395     23397     23396     23397     23398     23399
     23398     23400     23399     23400     23401     23402     23401     23403
     23402     23403     23404     23405     23404     23406     23405     23406
     23407     23408     23407     23409     23408     23409     23410     23411
     23410     23412     23411     23412     23413     23414     23413     23415
     23414     23415     23416     23417     23416     23418     23417     23418
     23419     23420     23419     23421     23420     23421     23422     23423
     23422     23424     23423     23424     23425     23426     23425     23427
     23426     23427     23428     23429     23428     23430     23429     23430
     23431     23432     23431     23433     23432     23433     23434     23435
     23434     23436     23435     23436     23437     23438     23437     23439
     23438     23439     23440     23441     23440     23442     23441     23442
     23443     23444     23443     23445     23444     23445     23446     23447
     23446     23448     23447     23448     23449     23450     23449     23451
     23450     23451     23452     23453     23452     23454     23453     23454
     23455     23456     23455     23457     23456     23457     23458     23459
     23458     23460     23459     23460     23461     23462     23461     23463
     23462     23463     23464     23465     23464     23466     23465     23466
     23467     23468     23467     23469     23468     23469     23470     23471
     23470     23472     23471     23472     23473     23474     23473     23475
     23474     23475     23476     23477     23476     23478     23477     23478
     23479     23480     23479     23481     23480     23481     23482     23483
     23482     23484     23483     23484     23485     23486     23485     23487
     23486     23487     23488     23489     23488     23490     23489     23490
     23491     23492     23491     23493     23492     23493     23494     23495
     23494     23496     23495     23496     23497     23498     23497     23499
     23498     23499     23500     23501     23500     23502     23501     23502
     23503     23504     23503     23505     23504     23505     23506     23507
     23506     23508     23507     23508     23509     23510     23509     23511
     23510     23511     23512     23513     23512     23514     23513     23514
     23515     23516     23515     23517     23516     23517     23518     23519
     23518     23520     23519     23520     23521     23522     23521     23523
     23522     23523     23524     23525     23524     23526     23525     23526
     23527     23528     23527     23529     23528     23529     23530     23531
     23530     23532     23531     23532     23533     23534     23533     23535
     23534     23535     23536     23537     23536     23538     23537     23538
     23539     23540     23539     23541     23540     23541     23542     23543
     23542     23544     23543     23544     23545     23546     23545     23547
     23546     23547     23548     23549     23548     23550     23549     23550
     23551     23552     23551     23553     23552     23553     23554     23555
     23554     23556     23555     23556     23557     23558     23557     23559
     23558     23559     23560     23561     23560     23562     23561     23562
     23563     23564     23563     23565     23564     23565     23566     23567
     23566     23568     23567     23568     23569     23570     23569     23571
     23570     23571     23572     23573     23572     23574     23573     23574
     23575     23576     23575     23577     23576     23577     23578     23579
     23578     23580     23579     23580     23581     23582     23581     23583
     23582     23583     23584     23585     23584     23586     23585     23586
     23587     23588     23587     23589     23588     23589     23590     23591
     23590     23592     23591     23592     23593     23594     23593     23595
     23594     23595     23596     23597     23596     23598     23597     23598
     23599     23600     23599     23601     23600     23601     23602     23603
     23602     23604     23603     23604     23605     23606     23605     23607
     23606     23607     23608     23609     23608     23610     23609     23610
     23611     23612     23611     23613     23612     23613     23614     23615
     23614     23616     23615     23616     23617     23618     23617     23619
     23618     23619     23620     23621     23620     23622     23621     23622
     23623     23624     23623     23625     23624     23625     23626     23627
     23626     23628     23627     23628     23629     23630     23629     23631
     23630     23631     23632     23633     23632     23634     23633     23634
     23635     23636     23635     23637     23636     23637     23638     23639
     23638     23640     23639     23640     23641     23642     23641     23643
     23642     23643     23644     23645     23644     23646     23645     23646
     23647     23648     23647     23649     23648     23649     23650     23651
     23650     23652     23651     23652     23653     23654     23653     23655
     23654     23655     23656     23657     23656     23658     23657     23658
     23659     23660     23659     23661     23660     23661     23662     23663
     23662     23664     23663     23664     23665     23666     23665     23667
     23666     23667     23668     23669     23668     23670     23669     23670
     23671     23672     23671     23673     23672     23673     23674     23675
     23674     23676     23675     23676     23677     23678     23677     23679
     23678     23679     23680     23681     23680     23682     23681     23682
     23683     23684     23683     23685     23684     23685     23686     23687
     23686     23688     23687     23688     23689     23690     23689     23691
     23690     23691     23692     23693     23692     23694     23693     23694
     23695     23696     23695     23697     23696     23697     23698     23699
     23698     23700     23699     23700     23701     23702     23701     23703
     23702     23703     23704     23705     23704     23706     23705     23706
     23707     23708     23707     23709     23708     23709     23710     23711
     23710     23712     23711     23712     23713     23714     23713     23715
     23714     23715     23716     23717     23716     23718     23717     23718
     23719     23720     23719     23721     23720     23721     23722     23723
     23722     23724     23723     23724     23725     23726     23725     23727
     23726     23727     23728     23729     23728     23730     23729     23730
     23731     23732     23731     23733     23732     23733     23734     23735
     23734     23736     23735     23736     23737     23738     23737     23739
     23738     23739     23740     23741     23740     23742     23741     23742
     23743     23744     23743     23745     23744     23745     23746     23747
     23746     23748     23747     23748     23749     23750     23749     23751
     23750     23751     23752     23753     23752     23754     23753     23754
     23755     23756     23755     23757     23756     23757     23758     23759
     23758     23760     23759     23760     23761     23762     23761     23763
     23762     23763     23764     23765     23764     23766     23765     23766
     23767     23768     23767     23769     23768     23769     23770     23771
     23770     23772     23771     23772     23773     23774     23773     23775
     23774     23775     23776     23777     23776     23778     23777     23778
     23779     23780     23779     23781     23780     23781     23782     23783
     23782     23784     23783     23784     23785     23786     23785     23787
     23786     23787     23788     23789     23788     23790     23789     23790
     23791     23792     23791     23793     23792     23793     23794     23795
     23794     23796     23795     23796     23797     23798     23797     23799
     23798     23799     23800     23801     23800     23802     23801     23802
     23803     23804     23803     23805     23804     23805     23806     23807
     23806     23808     23807     23808     23809     23810     23809     23811
     23810     23811     23812     23813     23812     23814     23813     23814
     23815     23816     23815     23817     23816     23817     23818     23819
     23818     23820     23819     23820     23821     23822     23821     23823
     23822     23823     23824     23825     23824     23826     23825     23826
     23827     23828     23827     23829     23828     23829     23830     23831
     23830     23832     23831     23832     23833     23834     23833     23835
     23834     23835     23836     23837     23836     23838     23837     23838
     23839     23840     23839     23841     23840     23841     23842     23843
     23842     23844     23843     23844     23845     23846     23845     23847
     23846     23847     23848     23849     23848     23850     23849     23850
     23851     23852     23851     23853     23852     23853     23854     23855
     23854     23856     23855     23856     23857     23858     23857     23859
     23858     23859     23860     23861     23860     23862     23861     23862
     23863     23864     23863     23865     23864     23865     23866     23867
     23866     23868     23867     23868     23869     23870     23869     23871
     23870     23871     23872     23873     23872     23874     23873     23874
     23875     23876     23875     23877     23876     23877     23878     23879
     23878     23880     23879     23880     23881     23882     23881     23883
     23882     23883     23884     23885     23884     23886     23885     23886
     23887     23888     23887     23889     23888     23889     23890     23891
     23890     23892     23891     23892     23893     23894     23893     23895
     23894     23895     23896     23897     23896     23898     23897     23898
     23899     23900     23899     23901     23900     23901     23902     23903
     23902     23904     23903     23904     23905     23906     23905     23907
     23906     23907     23908     23909     23908     23910     23909     23910
     23911     23912     23911     23913     23912     23913     23914     23915
     23914     23916     23915     23916     23917     23918     23917     23919
     23918     23919     23920     23921     23920     23922     23921     23922
     23923     23924     23923     23925     23924     23925     23926     23927
     23926     23928     23927     23928     23929     23930     23929     23931
     23930     23931     23932     23933     23932     23934     23933     23934
     23935     23936     23935     23937     23936     23937     23938     23939
     23938     23940     23939     23940     23941     23942     23941     23943
     23942     23943     23944     23945     23944     23946     23945     23946
     23947     23948     23947     23949     23948     23949     23950     23951
     23950     23952     23951     23952     23953     23954     23953     23955
     23954     23955     23956     23957     23956     23958     23957     23958
     23959     23960     23959     23961     23960     23961     23962     23963
     23962     23964     23963     23964     23965     23966     23965     23967
     23966     23967     23968     23969     23968     23970     23969     23970
     23971     23972     23971     23973     23972     23973     23974     23975
     23974     23976     23975     23976     23977     23978     23977     23979
     23978     23979     23980     23981     23980     23982     23981     23982
     23983     23984     23983     23985     23984     23985     23986     23987
     23986     23988     23987     23988     23989     23990     23989     23991
     23990     23991     23992     23993     23992     23994     23993     23994
     23995     23996     23995     23997     23996     23997     23998     23999
     23998     24000     23999     24000     24001     24002     24001     24003
     24002     24003     24004     24005     24004     24006     24005     24006
     24007     24008     24007     24009     24008     24009     24010     24011
     24010     24012     24011     24012     24013     24014     24013     24015
     24014     24015     24016     24017     24016     24018     24017     24018
     24019     24020     24019     24021     24020     24021     24022     24023
     24022     24024     24023     24024     24025     24026     24025     24027
     24026     24027     24028     24029     24028     24030     24029     24030
     24031     24032     24031     24033     24032     24033     24034     24035
     24034     24036     24035     24036     24037     24038     24037     24039
     24038     24039     24040     24041     24040     24042     24041     24042
     24043     24044     24043     24045     24044     24045     24046     24047
     24046     24048     24047     24048     24049     24050     24049     24051
     24050     24051     24052     24053     24052     24054     24053     24054
     24055     24056     24055     24057     24056     24057     24058     24059
     24058     24060     24059     24060     24061     24062     24061     24063
     24062     24063     24064     24065     24064     24066     24065     24066
     24067     24068     24067     24069     24068     24069     24070     24071
     24070     24072     24071     24072     24073     24074     24073     24075
     24074     24075     24076     24077     24076     24078     24077     24078
     24079     24080     24079     24081     24080     24081     24082     24083
     24082     24084     24083     24084     24085     24086     24085     24087
     24086     24087     24088     24089     24088     24090     24089     24090
     24091     24092     24091     24093     24092     24093     24094     24095
     24094     24096     24095     24096     24097     24098     24097     24099
     24098     24099     24100     24101     24100     24102     24101     24102
     24103     24104     24103     24105     24104     24105     24106     24107
     24106     24108     24107     24108     24109     24110     24109     24111
     24110     24111     24112     24113     24112     24114     24113     24114
     24115     24116     24115     24117     24116     24117     24118     24119
     24118     24120     24119     24120     24121     24122     24121     24123
     24122     24123     24124     24125     24124     24126     24125     24126
     24127     24128     24127     24129     24128     24129     24130     24131
     24130     24132     24131     24132     24133     24134     24133     24135
     24134     24135     24136     24137     24136     24138     24137     24138
     24139     24140     24139     24141     24140     24141     24142     24143
     24142     24144     24143     24144     24145     24146     24145     24147
     24146     24147     24148     24149     24148     24150     24149     24150
     24151     24152     24151     24153     24152     24153     24154     24155
     24154     24156     24155     24156     24157     24158     24157     24159
     24158     24159     24160     24161     24160     24162     24161     24162
     24163     24164     24163     24165     24164     24165     24166     24167
     24166     24168     24167     24168     24169     24170     24169     24171
     24170     24171     24172     24173     24172     24174     24173     24174
     24175     24176     24175     24177     24176     24177     24178     24179
     24178     24180     24179     24180     24181     24182     24181     24183
     24182     24183     24184     24185     24184     24186     24185     24186
     24187     24188     24187     24189     24188     24189     24190     24191
     24190     24192     24191     24192     24193     24194     24193     24195
     24194     24195     24196     24197     24196     24198     24197     24198
     24199     24200     24199     24201     24200     24201     24202     24203
     24202     24204     24203     24204     24205     24206     24205     24207
     24206     24207     24208     24209     24208     24210     24209     24210
     24211     24212     24211     24213     24212     24213     24214     24215
     24214     24216     24215     24216     24217     24218     24217     24219
     24218     24219     24220     24221     24220     24222     24221     24222
     24223     24224     24223     24225     24224     24225     24226     24227
     24226     24228     24227     24228     24229     24230     24229     24231
     24230     24231     24232     24233     24232     24234     24233     24234
     24235     24236     24235     24237     24236     24237     24238     24239
     24238     24240     24239     24240     24241     24242     24241     24243
     24242     24243     24244     24245     24244     24246     24245     24246
     24247     24248     24247     24249     24248     24249     24250     24251
     24250     24252     24251     24252     24253     24254     24253     24255
     24254     24255     24256     24257     24256     24258     24257     24258
     24259     24260     24259     24261     24260     24261     24262     24263
     24262     24264     24263     24264     24265     24266     24265     24267
     24266     24267     24268     24269     24268     24270     24269     24270
     24271     24272     24271     24273     24272     24273     24274     24275
     24274     24276     24275     24276     24277     24278     24277     24279
     24278     24279     24280     24281     24280     24282     24281     24282
     24283     24284     24283     24285     24284     24285     24286     24287
     24286     24288     24287     24288     24289     24290     24289     24291
     24290     24291     24292     24293     24292     24294     24293     24294
     24295     24296     24295     24297     24296     24297     24298     24299
     24298     24300     24299     24300     24301     24302     24301     24303
     24302     24303     24304     24305     24304     24306     24305     24306
     24307     24308     24307     24309     24308     24309     24310     24311
     24310     24312     24311     24312     24313     24314     24313     24315
     24314     24315     24316     24317     24316     24318     24317     24318
     24319     24320     24319     24321     24320     24321     24322     24323
     24322     24324     24323     24324     24325     24326     24325     24327
     24326     24327     24328     24329     24328     24330     24329     24330
     24331     24332     24331     24333     24332     24333     24334     24335
     24334     24336     24335     24336     24337     24338     24337     24339
     24338     24339     24340     24341     24340     24342     24341     24342
     24343     24344     24343     24345     24344     24345     24346     24347
     24346     24348     24347     24348     24349     24350     24349     24351
     24350     24351     24352     24353     24352     24354     24353     24354
     24355     24356     24355     24357     24356     24357     24358     24359
     24358     24360     24359     24360     24361     24362     24361     24363
     24362     24363     24364     24365     24364     24366     24365     24366
     24367     24368     24367     24369     24368     24369     24370     24371
     24370     24372     24371     24372     24373     24374     24373     24375
     24374     24375     24376     24377     24376     24378     24377     24378
     24379     24380     24379     24381     24380     24381     24382     24383
     24382     24384     24383     24384     24385     24386     24385     24387
     24386     24387     24388     24389     24388     24390     24389     24390
     24391     24392     24391     24393     24392     24393     24394     24395
     24394     24396     24395     24396     24397     24398     24397     24399
     24398     24399     24400     24401     24400     24402     24401     24402
     24403     24404     24403     24405     24404     24405     24406     24407
     24406     24408     24407     24408     24409     24410     24409     24411
     24410     24411     24412     24413     24412     24414     24413     24414
     24415     24416     24415     24417     24416     24417     24418     24419
     24418     24420     24419     24420     24421     24422     24421     24423
     24422     24423     24424     24425     24424     24426     24425     24426
     24427     24428     24427     24429     24428     24429     24430     24431
     24430     24432     24431     24432     24433     24434     24433     24435
     24434     24435     24436     24437     24436     24438     24437     24438
     24439     24440     24439     24441     24440     24441     24442     24443
     24442     24444     24443     24444     24445     24446     24445     24447
     24446     24447     24448     24449     24448     24450     24449     24450
     24451     24452     24451     24453     24452     24453     24454     24455
     24454     24456     24455     24456     24457     24458     24457     24459
     24458     24459     24460     24461     24460     24462     24461     24462
     24463     24464     24463     24465     24464     24465     24466     24467
     24466     24468     24467     24468     24469     24470     24469     24471
     24470     24471     24472     24473     24472     24474     24473     24474
     24475     24476     24475     24477     24476     24477     24478     24479
     24478     24480     24479     24480     24481     24482     24481     24483
     24482     24483     24484     24485     24484     24486     24485     24486
     24487     24488     24487     24489     24488     24489     24490     24491
     24490     24492     24491     24492     24493     24494     24493     24495
     24494     24495     24496     24497     24496     24498     24497     24498
     24499     24500     24499     24501     24500     24501     24502     24503
     24502     24504     24503     24504     24505     24506     24505     24507
     24506     24507     24508     24509     24508     24510     24509     24510
     24511     24512     24511     24513     24512     24513     24514     24515
     24514     24516     24515     24516     24517     24518     24517     24519
     24518     24519     24520     24521     24520     24522     24521     24522
     24523     24524     24523     24525     24524     24525     24526     24527
     24526     24528     24527     24528     24529     24530     24529     24531
     24530     24531     24532     24533     24532     24534     24533     24534
     24535     24536     24535     24537     24536     24537     24538     24539
     24538     24540     24539     24540     24541     24542     24541     24543
     24542     24543     24544     24545     24544     24546     24545     24546
     24547     24548     24547     24549     24548     24549     24550     24551
     24550     24552     24551     24552     24553     24554     24553     24555
     24554     24555     24556     24557     24556     24558     24557     24558
     24559     24560     24559     24561     24560     24561     24562     24563
     24562     24564     24563     24564     24565     24566     24565     24567
     24566     24567     24568     24569     24568     24570     24569     24570
     24571     24572     24571     24573     24572     24573     24574     24575
     24574     24576     24575     24576     24577     24578     24577     24579
     24578     24579     24580     24581     24580     24582     24581     24582
     24583     24584     24583     24585     24584     24585     24586     24587
     24586     24588     24587     24588     24589     24590     24589     24591
     24590     24591     24592     24593     24592     24594     24593     24594
     24595     24596     24595     24597     24596     24597     24598     24599
     24598     24600     24599     24600     24601     24602     24601     24603
     24602     24603     24604     24605     24604     24606     24605     24606
     24607     24608     24607     24609     24608     24609     24610     24611
     24610     24612     24611     24612     24613     24614     24613     24615
     24614     24615     24616     24617     24616     24618     24617     24618
     24619     24620     24619     24621     24620     24621     24622     24623
     24622     24624     24623     24624     24625     24626     24625     24627
     24626     24627     24628     24629     24628     24630     24629     24630
     24631     24632     24631     24633     24632     24633     24634     24635
     24634     24636     24635     24636     24637     24638     24637     24639
     24638     24639     24640     24641     24640     24642     24641     24642
     24643     24644     24643     24645     24644     24645     24646     24647
     24646     24648     24647     24648     24649     24650     24649     24651
     24650     24651     24652     24653     24652     24654     24653     24654
     24655     24656     24655     24657     24656     24657     24658     24659
     24658     24660     24659     24660     24661     24662     24661     24663
     24662     24663     24664     24665     24664     24666     24665     24666
     24667     24668     24667     24669     24668     24669     24670     24671
     24670     24672     24671     24672     24673     24674     24673     24675
     24674     24675     24676     24677     24676     24678     24677     24678
     24679     24680     24679     24681     24680     24681     24682     24683
     24682     24684     24683     24684     24685     24686     24685     24687
     24686     24687     24688     24689     24688     24690     24689     24690
     24691     24692     24691     24693     24692     24693     24694     24695
     24694     24696     24695     24696     24697     24698     24697     24699
     24698     24699     24700     24701     24700     24702     24701     24702
     24703     24704     24703     24705     24704     24705     24706     24707
     24706     24708     24707     24708     24709     24710     24709     24711
     24710     24711     24712     24713     24712     24714     24713     24714
     24715     24716     24715     24717     24716     24717     24718     24719
     24718     24720     24719     24720     24721     24722     24721     24723
     24722     24723     24724     24725     24724     24726     24725     24726
     24727     24728     24727     24729     24728     24729     24730     24731
     24730     24732     24731     24732     24733     24734     24733     24735
     24734     24735     24736     24737     24736     24738     24737     24738
     24739     24740     24739     24741     24740     24741     24742     24743
     24742     24744     24743     24744     24745     24746     24745     24747
     24746     24747     24748     24749     24748     24750     24749     24750
     24751     24752     24751     24753     24752     24753     24754     24755
     24754     24756     24755     24756     24757     24758     24757     24759
     24758     24759     24760     24761     24760     24762     24761     24762
     24763     24764     24763     24765     24764     24765     24766     24767
     24766     24768     24767     24768     24769     24770     24769     24771
     24770     24771     24772     24773     24772     24774     24773     24774
     24775     24776     24775     24777     24776     24777     24778     24779
     24778     24780     24779     24780     24781     24782     24781     24783
     24782     24783     24784     24785     24784     24786     24785     24786
     24787     24788     24787     24789     24788     24789     24790     24791
     24790     24792     24791     24792     24793     24794     24793     24795
     24794     24795     24796     24797     24796     24798     24797     24798
     24799     24800     24799     24801     24800     24801     24802     24803
     24802     24804     24803     24804     24805     24806     24805     24807
     24806     24807     24808     24809     24808     24810     24809     24810
     24811     24812     24811     24813     24812     24813     24814     24815
     24814     24816     24815     24816     24817     24818     24817     24819
     24818     24819     24820     24821     24820     24822     24821     24822
     24823     24824     24823     24825     24824     24825     24826     24827
     24826     24828     24827     24828     24829     24830     24829     24831
     24830     24831     24832     24833     24832     24834     24833     24834
     24835     24836     24835     24837     24836     24837     24838     24839
     24838     24840     24839     24840     24841     24842     24841     24843
     24842     24843     24844     24845     24844     24846     24845     24846
     24847     24848     24847     24849     24848     24849     24850     24851
     24850     24852     24851     24852     24853     24854     24853     24855
     24854     24855     24856     24857     24856     24858     24857     24858
     24859     24860     24859     24861     24860     24861     24862     24863
     24862     24864     24863     24864     24865     24866     24865     24867
     24866     24867     24868     24869     24868     24870     24869     24870
     24871     24872     24871     24873     24872     24873     24874     24875
     24874     24876     24875     24876     24877     24878     24877     24879
     24878     24879     24880     24881     24880     24882     24881     24882
     24883     24884     24883     24885     24884     24885     24886     24887
     24886     24888     24887     24888     24889     24890     24889     24891
     24890     24891     24892     24893     24892     24894     24893     24894
     24895     24896     24895     24897     24896     24897     24898     24899
     24898     24900     24899     24900     24901     24902     24901     24903
     24902     24903     24904     24905     24904     24906     24905     24906
     24907     24908     24907     24909     24908     24909     24910     24911
     24910     24912     24911     24912     24913     24914     24913     24915
     24914     24915     24916     24917     24916     24918     24917     24918
     24919     24920     24919     24921     24920     24921     24922     24923
     24922     24924     24923     24924     24925     24926     24925     24927
     24926     24927     24928     24929     24928     24930     24929     24930
     24931     24932     24931     24933     24932     24933     24934     24935
     24934     24936     24935     24936     24937     24938     24937     24939
     24938     24939     24940     24941     24940     24942     24941     24942
     24943     24944     24943     24945     24944     24945     24946     24947
     24946     24948     24947     24948     24949     24950     24949     24951
     24950     24951     24952     24953     24952     24954     24953     24954
     24955     24956     24955     24957     24956     24957     24958     24959
     24958     24960     24959     24960     24961     24962     24961     24963
     24962     24963     24964     24965     24964     24966     24965     24966
     24967     24968     24967     24969     24968     24969     24970     24971
     24970     24972     24971     24972     24973     24974     24973     24975
     24974     24975     24976     24977     24976     24978     24977     24978
     24979     24980     24979     24981     24980     24981     24982     24983
     24982     24984     24983     24984     24985     24986     24985     24987
     24986     24987     24988     24989     24988     24990     24989     24990
     24991     24992     24991     24993     24992     24993     24994     24995
     24994     24996     24995     24996     24997     24998     24997     24999
     24998     24999     25000     25001     25000     25002     25001     25002
     25003     25004     25003     25005     25004     25005     25006     25007
     25006     25008     25007     25008     25009     25010     25009     25011
     25010     25011     25012     25013     25012     25014     25013     25014
     25015     25016     25015     25017     25016     25017     25018     25019
     25018     25020     25019     25020     25021     25022     25021     25023
     25022     25023     25024     25025     25024     25026     25025     25026
     25027     25028     25027     25029     25028     25029     25030     25031
     25030     25032     25031     25032     25033     25034     25033     25035
     25034     25035     25036     25037     25036     25038     25037     25038
     25039     25040     25039     25041     25040     25041     25042     25043
     25042     25044     25043     25044     25045     25046     25045     25047
     25046     25047     25048     25049     25048     25050     25049     25050
     25051     25052     25051     25053     25052     25053     25054     25055
     25054     25056     25055     25056     25057     25058     25057     25059
     25058     25059     25060     25061     25060     25062     25061     25062
     25063     25064     25063     25065     25064     25065     25066     25067
     25066     25068     25067     25068     25069     25070     25069     25071
     25070     25071     25072     25073     25072     25074     25073     25074
     25075     25076     25075     25077     25076     25077     25078     25079
     25078     25080     25079     25080     25081     25082     25081     25083
     25082     25083     25084     25085     25084     25086     25085     25086
     25087     25088     25087     25089     25088     25089     25090     25091
     25090     25092     25091     25092     25093     25094     25093     25095
     25094     25095     25096     25097     25096     25098     25097     25098
     25099     25100     25099     25101     25100     25101     25102     25103
     25102     25104     25103     25104     25105     25106     25105     25107
     25106     25107     25108     25109     25108     25110     25109     25110
     25111     25112     25111     25113     25112     25113     25114     25115
     25114     25116     25115     25116     25117     25118     25117     25119
     25118     25119     25120     25121     25120     25122     25121     25122
     25123     25124     25123     25125     25124     25125     25126     25127
     25126     25128     25127     25128     25129     25130     25129     25131
     25130     25131     25132     25133     25132     25134     25133     25134
     25135     25136     25135     25137     25136     25137     25138     25139
     25138     25140     25139     25140     25141     25142     25141     25143
     25142     25143     25144     25145     25144     25146     25145     25146
     25147     25148     25147     25149     25148     25149     25150     25151
     25150     25152     25151     25152     25153     25154     25153     25155
     25154     25155     25156     25157     25156     25158     25157     25158
     25159     25160     25159     25161     25160     25161     25162     25163
     25162     25164     25163     25164     25165     25166     25165     25167
     25166     25167     25168     25169     25168     25170     25169     25170
     25171     25172     25171     25173     25172     25173     25174     25175
     25174     25176     25175     25176     25177     25178     25177     25179
     25178     25179     25180     25181     25180     25182     25181     25182
     25183     25184     25183     25185     25184     25185     25186     25187
     25186     25188     25187     25188     25189     25190     25189     25191
     25190     25191     25192     25193     25192     25194     25193     25194
     25195     25196     25195     25197     25196     25197     25198     25199
     25198     25200     25199     25200     25201     25202     25201     25203
     25202     25203     25204     25205     25204     25206     25205     25206
     25207     25208     25207     25209     25208     25209     25210     25211
     25210     25212     25211     25212     25213     25214     25213     25215
     25214     25215     25216     25217     25216     25218     25217     25218
     25219     25220     25219     25221     25220     25221     25222     25223
     25222     25224     25223     25224     25225     25226     25225     25227
     25226     25227     25228     25229     25228     25230     25229     25230
     25231     25232     25231     25233     25232     25233     25234     25235
     25234     25236     25235     25236     25237     25238     25237     25239
     25238     25239     25240     25241     25240     25242     25241     25242
     25243     25244     25243     25245     25244     25245     25246     25247
     25246     25248     25247     25248     25249     25250     25249     25251
     25250     25251     25252     25253     25252     25254     25253     25254
     25255     25256     25255     25257     25256     25257     25258     25259
     25258     25260     25259     25260     25261     25262     25261     25263
     25262     25263     25264     25265     25264     25266     25265     25266
     25267     25268     25267     25269     25268     25269     25270     25271
     25270     25272     25271     25272     25273     25274     25273     25275
     25274     25275     25276     25277     25276     25278     25277     25278
     25279     25280     25279     25281     25280     25281     25282     25283
     25282     25284     25283     25284     25285     25286     25285     25287
     25286     25287     25288     25289     25288     25290     25289     25290
     25291     25292     25291     25293     25292     25293     25294     25295
     25294     25296     25295     25296     25297     25298     25297     25299
     25298     25299     25300     25301     25300     25302     25301     25302
     25303     25304     25303     25305     25304     25305     25306     25307
     25306     25308     25307     25308     25309     25310     25309     25311
     25310     25311     25312     25313     25312     25314     25313     25314
     25315     25316     25315     25317     25316     25317     25318     25319
     25318     25320     25319     25320     25321     25322     25321     25323
     25322     25323     25324     25325     25324     25326     25325     25326
     25327     25328     25327     25329     25328     25329     25330     25331
     25330     25332     25331     25332     25333     25334     25333     25335
     25334     25335     25336     25337     25336     25338     25337     25338
     25339     25340     25339     25341     25340     25341     25342     25343
     25342     25344     25343     25344     25345     25346     25345     25347
     25346     25347     25348     25349     25348     25350     25349     25350
     25351     25352     25351     25353     25352     25353     25354     25355
     25354     25356     25355     25356     25357     25358     25357     25359
     25358     25359     25360     25361     25360     25362     25361     25362
     25363     25364     25363     25365     25364     25365     25366     25367
     25366     25368     25367     25368     25369     25370     25369     25371
     25370     25371     25372     25373     25372     25374     25373     25374
     25375     25376     25375     25377     25376     25377     25378     25379
     25378     25380     25379     25380     25381     25382     25381     25383
     25382     25383     25384     25385     25384     25386     25385     25386
     25387     25388     25387     25389     25388     25389     25390     25391
     25390     25392     25391     25392     25393     25394     25393     25395
     25394     25395     25396     25397     25396     25398     25397     25398
     25399     25400     25399     25401     25400     25401     25402     25403
     25402     25404     25403     25404     25405     25406     25405     25407
     25406     25407     25408     25409     25408     25410     25409     25410
     25411     25412     25411     25413     25412     25413     25414     25415
     25414     25416     25415     25416     25417     25418     25417     25419
     25418     25419     25420     25421     25420     25422     25421     25422
     25423     25424     25423     25425     25424     25425     25426     25427
     25426     25428     25427     25428     25429     25430     25429     25431
     25430     25431     25432     25433     25432     25434     25433     25434
     25435     25436     25435     25437     25436     25437     25438     25439
     25438     25440     25439     25440     25441     25442     25441     25443
     25442     25443     25444     25445     25444     25446     25445     25446
     25447     25448     25447     25449     25448     25449     25450     25451
     25450     25452     25451     25452     25453     25454     25453     25455
     25454     25455     25456     25457     25456     25458     25457     25458
     25459     25460     25459     25461     25460     25461     25462     25463
     25462     25464     25463     25464     25465     25466     25465     25467
     25466     25467     25468     25469     25468     25470     25469     25470
     25471     25472     25471     25473     25472     25473     25474     25475
     25474     25476     25475     25476     25477     25478     25477     25479
     25478     25479     25480     25481     25480     25482     25481     25482
     25483     25484     25483     25485     25484     25485     25486     25487
     25486     25488     25487     25488     25489     25490     25489     25491
     25490     25491     25492     25493     25492     25494     25493     25494
     25495     25496     25495     25497     25496     25497     25498     25499
     25498     25500     25499     25500     25501     25502     25501     25503
     25502     25503     25504     25505     25504     25506     25505     25506
     25507     25508     25507     25509     25508     25509     25510     25511
     25510     25512     25511     25512     25513     25514     25513     25515
     25514     25515     25516     25517     25516     25518     25517     25518
     25519     25520     25519     25521     25520     25521     25522     25523
     25522     25524     25523     25524     25525     25526     25525     25527
     25526     25527     25528     25529     25528     25530     25529     25530
     25531     25532     25531     25533     25532     25533     25534     25535
     25534     25536     25535     25536     25537     25538     25537     25539
     25538     25539     25540     25541     25540     25542     25541     25542
     25543     25544     25543     25545     25544     25545     25546     25547
     25546     25548     25547     25548     25549     25550     25549     25551
     25550     25551     25552     25553     25552     25554     25553     25554
     25555     25556     25555     25557     25556     25557     25558     25559
     25558     25560     25559     25560     25561     25562     25561     25563
     25562     25563     25564     25565     25564     25566     25565     25566
     25567     25568     25567     25569     25568     25569     25570     25571
     25570     25572     25571     25572     25573     25574     25573     25575
     25574     25575     25576     25577     25576     25578     25577     25578
     25579     25580     25579     25581     25580     25581     25582     25583
     25582     25584     25583     25584     25585     25586     25585     25587
     25586     25587     25588     25589     25588     25590     25589     25590
     25591     25592     25591     25593     25592     25593     25594     25595
     25594     25596     25595     25596     25597     25598     25597     25599
     25598     25599     25600     25601     25600     25602     25601     25602
     25603     25604     25603     25605     25604     25605     25606     25607
     25606     25608     25607     25608     25609     25610     25609     25611
     25610     25611     25612     25613     25612     25614     25613     25614
     25615     25616     25615     25617     25616     25617     25618     25619
     25618     25620     25619     25620     25621     25622     25621     25623
     25622     25623     25624     25625     25624     25626     25625     25626
     25627     25628     25627     25629     25628     25629     25630     25631
     25630     25632     25631     25632     25633     25634     25633     25635
     25634     25635     25636     25637     25636     25638     25637     25638
     25639     25640     25639     25641     25640     25641     25642     25643
     25642     25644     25643     25644     25645     25646     25645     25647
     25646     25647     25648     25649     25648     25650     25649     25650
     25651     25652     25651     25653     25652     25653     25654     25655
     25654     25656     25655     25656     25657     25658     25657     25659
     25658     25659     25660     25661     25660     25662     25661     25662
     25663     25664     25663     25665     25664     25665     25666     25667
     25666     25668     25667     25668     25669     25670     25669     25671
     25670     25671     25672     25673     25672     25674     25673     25674
     25675     25676     25675     25677     25676     25677     25678     25679
     25678     25680     25679     25680     25681     25682     25681     25683
     25682     25683     25684     25685     25684     25686     25685     25686
     25687     25688     25687     25689     25688     25689     25690     25691
     25690     25692     25691     25692     25693     25694     25693     25695
     25694     25695     25696     25697     25696     25698     25697     25698
     25699     25700     25699     25701     25700     25701     25702     25703
     25702     25704     25703     25704     25705     25706     25705     25707
     25706     25707     25708     25709     25708     25710     25709     25710
     25711     25712     25711     25713     25712     25713     25714     25715
     25714     25716     25715     25716     25717     25718     25717     25719
     25718     25719     25720     25721     25720     25722     25721     25722
     25723     25724     25723     25725     25724     25725     25726     25727
     25726     25728     25727     25728     25729     25730     25729     25731
     25730     25731     25732     25733     25732     25734     25733     25734
     25735     25736     25735     25737     25736     25737     25738     25739
     25738     25740     25739     25740     25741     25742     25741     25743
     25742     25743     25744     25745     25744     25746     25745     25746
     25747     25748     25747     25749     25748     25749     25750     25751
     25750     25752     25751     25752     25753     25754     25753     25755
     25754     25755     25756     25757     25756     25758     25757     25758
     25759     25760     25759     25761     25760     25761     25762     25763
     25762     25764     25763     25764     25765     25766     25765     25767
     25766     25767     25768     25769     25768     25770     25769     25770
     25771     25772     25771     25773     25772     25773     25774     25775
     25774     25776     25775     25776     25777     25778     25777     25779
     25778     25779     25780     25781     25780     25782     25781     25782
     25783     25784     25783     25785     25784     25785     25786     25787
     25786     25788     25787     25788     25789     25790     25789     25791
     25790     25791     25792     25793     25792     25794     25793     25794
     25795     25796     25795     25797     25796     25797     25798     25799
     25798     25800     25799     25800     25801     25802     25801     25803
     25802     25803     25804     25805     25804     25806     25805     25806
     25807     25808     25807     25809     25808     25809     25810     25811
     25810     25812     25811     25812     25813     25814     25813     25815
     25814     25815     25816     25817     25816     25818     25817     25818
     25819     25820     25819     25821     25820     25821     25822     25823
     25822     25824     25823     25824     25825     25826     25825     25827
     25826     25827     25828     25829     25828     25830     25829     25830
     25831     25832     25831     25833     25832     25833     25834     25835
     25834     25836     25835     25836     25837     25838     25837     25839
     25838     25839     25840     25841     25840     25842     25841     25842
     25843     25844     25843     25845     25844     25845     25846     25847
     25846     25848     25847     25848     25849     25850     25849     25851
     25850     25851     25852     25853     25852     25854     25853     25854
     25855     25856     25855     25857     25856     25857     25858     25859
     25858     25860     25859     25860     25861     25862     25861     25863
     25862     25863     25864     25865     25864     25866     25865     25866
     25867     25868     25867     25869     25868     25869     25870     25871
     25870     25872     25871     25872     25873     25874     25873     25875
     25874     25875     25876     25877     25876     25878     25877     25878
     25879     25880     25879     25881     25880     25881     25882     25883
     25882     25884     25883     25884     25885     25886     25885     25887
     25886     25887     25888     25889     25888     25890     25889     25890
     25891     25892     25891     25893     25892     25893     25894     25895
     25894     25896     25895     25896     25897     25898     25897     25899
     25898     25899     25900     25901     25900     25902     25901     25902
     25903     25904     25903     25905     25904     25905     25906     25907
     25906     25908     25907     25908     25909     25910     25909     25911
     25910     25911     25912     25913     25912     25914     25913     25914
     25915     25916     25915     25917     25916     25917     25918     25919
     25918     25920     25919     25920     25921     25922     25921     25923
     25922     25923     25924     25925     25924     25926     25925     25926
     25927     25928     25927     25929     25928     25929     25930     25931
     25930     25932     25931     25932     25933     25934     25933     25935
     25934     25935     25936     25937     25936     25938     25937     25938
     25939     25940     25939     25941     25940     25941     25942     25943
     25942     25944     25943     25944     25945     25946     25945     25947
     25946     25947     25948     25949     25948     25950     25949     25950
     25951     25952     25951     25953     25952     25953     25954     25955
     25954     25956     25955     25956     25957     25958     25957     25959
     25958     25959     25960     25961     25960     25962     25961     25962
     25963     25964     25963     25965     25964     25965     25966     25967
     25966     25968     25967     25968     25969     25970     25969     25971
     25970     25971     25972     25973     25972     25974     25973     25974
     25975     25976     25975     25977     25976     25977     25978     25979
     25978     25980     25979     25980     25981     25982     25981     25983
     25982     25983     25984     25985     25984     25986     25985     25986
     25987     25988     25987     25989     25988     25989     25990     25991
     25990     25992     25991     25992     25993     25994     25993     25995
     25994     25995     25996     25997     25996     25998     25997     25998
     25999     26000     25999     26001     26000     26001     26002     26003
     26002     26004     26003     26004     26005     26006     26005     26007
     26006     26007     26008     26009     26008     26010     26009     26010
     26011     26012     26011     26013     26012     26013     26014     26015
     26014     26016     26015     26016     26017     26018     26017     26019
     26018     26019     26020     26021     26020     26022     26021     26022
     26023     26024     26023     26025     26024     26025     26026     26027
     26026     26028     26027     26028     26029     26030     26029     26031
     26030     26031     26032     26033     26032     26034     26033     26034
     26035     26036     26035     26037     26036     26037     26038     26039
     26038     26040     26039     26040     26041     26042     26041     26043
     26042     26043     26044     26045     26044     26046     26045     26046
     26047     26048     26047     26049     26048     26049     26050     26051
     26050     26052     26051     26052     26053     26054     26053     26055
     26054     26055     26056     26057     26056     26058     26057     26058
     26059     26060     26059     26061     26060     26061     26062     26063
     26062     26064     26063     26064     26065     26066     26065     26067
     26066     26067     26068     26069     26068     26070     26069     26070
     26071     26072     26071     26073     26072     26073     26074     26075
     26074     26076     26075     26076     26077     26078     26077     26079
     26078     26079     26080     26081     26080     26082     26081     26082
     26083     26084     26083     26085     26084     26085     26086     26087
     26086     26088     26087     26088     26089     26090     26089     26091
     26090     26091     26092     26093     26092     26094     26093     26094
     26095     26096     26095     26097     26096     26097     26098     26099
     26098     26100     26099     26100     26101     26102     26101     26103
     26102     26103     26104     26105     26104     26106     26105     26106
     26107     26108     26107     26109     26108     26109     26110     26111
     26110     26112     26111     26112     26113     26114     26113     26115
     26114     26115     26116     26117     26116     26118     26117     26118
     26119     26120     26119     26121     26120     26121     26122     26123
     26122     26124     26123     26124     26125     26126     26125     26127
     26126     26127     26128     26129     26128     26130     26129     26130
     26131     26132     26131     26133     26132     26133     26134     26135
     26134     26136     26135     26136     26137     26138     26137     26139
     26138     26139     26140     26141     26140     26142     26141     26142
     26143     26144     26143     26145     26144     26145     26146     26147
     26146     26148     26147     26148     26149     26150     26149     26151
     26150     26151     26152     26153     26152     26154     26153     26154
     26155     26156     26155     26157     26156     26157     26158     26159
     26158     26160     26159     26160     26161     26162     26161     26163
     26162     26163     26164     26165     26164     26166     26165     26166
     26167     26168     26167     26169     26168     26169     26170     26171
     26170     26172     26171     26172     26173     26174     26173     26175
     26174     26175     26176     26177     26176     26178     26177     26178
     26179     26180     26179     26181     26180     26181     26182     26183
     26182     26184     26183     26184     26185     26186     26185     26187
     26186     26187     26188     26189     26188     26190     26189     26190
     26191     26192     26191     26193     26192     26193     26194     26195
     26194     26196     26195     26196     26197     26198     26197     26199
     26198     26199     26200     26201     26200     26202     26201     26202
     26203     26204     26203     26205     26204     26205     26206     26207
     26206     26208     26207     26208     26209     26210     26209     26211
     26210     26211     26212     26213     26212     26214     26213     26214
     26215     26216     26215     26217     26216     26217     26218     26219
     26218     26220     26219     26220     26221     26222     26221     26223
     26222     26223     26224     26225     26224     26226     26225     26226
     26227     26228     26227     26229     26228     26229     26230     26231
     26230     26232     26231     26232     26233     26234     26233     26235
     26234     26235     26236     26237     26236     26238     26237     26238
     26239     26240     26239     26241     26240     26241     26242     26243
     26242     26244     26243     26244     26245     26246     26245     26247
     26246     26247     26248     26249     26248     26250     26249     26250
     26251     26252     26251     26253     26252     26253     26254     26255
     26254     26256     26255     26256     26257     26258     26257     26259
     26258     26259     26260     26261     26260     26262     26261     26262
     26263     26264     26263     26265     26264     26265     26266     26267
     26266     26268     26267     26268     26269     26270     26269     26271
     26270     26271     26272     26273     26272     26274     26273     26274
     26275     26276     26275     26277     26276     26277     26278     26279
     26278     26280     26279     26280     26281     26282     26281     26283
     26282     26283     26284     26285     26284     26286     26285     26286
     26287     26288     26287     26289     26288     26289     26290     26291
     26290     26292     26291     26292     26293     26294     26293     26295
     26294     26295     26296     26297     26296     26298     26297     26298
     26299     26300     26299     26301     26300     26301     26302     26303
     26302     26304     26303     26304     26305     26306     26305     26307
     26306     26307     26308     26309     26308     26310     26309     26310
     26311     26312     26311     26313     26312     26313     26314     26315
     26314     26316     26315     26316     26317     26318     26317     26319
     26318     26319     26320     26321     26320     26322     26321     26322
     26323     26324     26323     26325     26324     26325     26326     26327
     26326     26328     26327     26328     26329     26330     26329     26331
     26330     26331     26332     26333     26332     26334     26333     26334
     26335     26336     26335     26337     26336     26337     26338     26339
     26338     26340     26339     26340     26341     26342     26341     26343
     26342     26343     26344     26345     26344     26346     26345     26346
     26347     26348     26347     26349     26348     26349     26350     26351
     26350     26352     26351     26352     26353     26354     26353     26355
     26354     26355     26356     26357     26356     26358     26357     26358
     26359     26360     26359     26361     26360     26361     26362     26363
     26362     26364     26363     26364     26365     26366     26365     26367
     26366     26367     26368     26369     26368     26370     26369     26370
     26371     26372     26371     26373     26372     26373     26374     26375
     26374     26376     26375     26376     26377     26378     26377     26379
     26378     26379     26380     26381     26380     26382     26381     26382
     26383     26384     26383     26385     26384     26385     26386     26387
     26386     26388     26387     26388     26389     26390     26389     26391
     26390     26391     26392     26393     26392     26394     26393     26394
     26395     26396     26395     26397     26396     26397     26398     26399
     26398     26400     26399     26400     26401     26402     26401     26403
     26402     26403     26404     26405     26404     26406     26405     26406
     26407     26408     26407     26409     26408     26409     26410     26411
     26410     26412     26411     26412     26413     26414     26413     26415
     26414     26415     26416     26417     26416     26418     26417     26418
     26419     26420     26419     26421     26420     26421     26422     26423
     26422     26424     26423     26424     26425     26426     26425     26427
     26426     26427     26428     26429     26428     26430     26429     26430
     26431     26432     26431     26433     26432     26433     26434     26435
     26434     26436     26435     26436     26437     26438     26437     26439
     26438     26439     26440     26441     26440     26442     26441     26442
     26443     26444     26443     26445     26444     26445     26446     26447
     26446     26448     26447     26448     26449     26450     26449     26451
     26450     26451     26452     26453     26452     26454     26453     26454
     26455     26456     26455     26457     26456     26457     26458     26459
     26458     26460     26459     26460     26461     26462     26461     26463
     26462     26463     26464     26465     26464     26466     26465     26466
     26467     26468     26467     26469     26468     26469     26470     26471
     26470     26472     26471     26472     26473     26474     26473     26475
     26474     26475     26476     26477     26476     26478     26477     26478
     26479     26480     26479     26481     26480     26481     26482     26483
     26482     26484     26483     26484     26485     26486     26485     26487
     26486     26487     26488     26489     26488     26490     26489     26490
     26491     26492     26491     26493     26492     26493     26494     26495
     26494     26496     26495     26496     26497     26498     26497     26499
     26498     26499     26500     26501     26500     26502     26501     26502
     26503     26504     26503     26505     26504     26505     26506     26507
     26506     26508     26507     26508     26509     26510     26509     26511
     26510     26511     26512     26513     26512     26514     26513     26514
     26515     26516     26515     26517     26516     26517     26518     26519
     26518     26520     26519     26520     26521     26522     26521     26523
     26522     26523     26524     26525     26524     26526     26525     26526
     26527     26528     26527     26529     26528     26529     26530     26531
     26530     26532     26531     26532     26533     26534     26533     26535
     26534     26535     26536     26537     26536     26538     26537     26538
     26539     26540     26539     26541     26540     26541     26542     26543
     26542     26544     26543     26544     26545     26546     26545     26547
     26546     26547     26548     26549     26548     26550     26549     26550
     26551     26552     26551     26553     26552     26553     26554     26555
     26554     26556     26555     26556     26557     26558     26557     26559
     26558     26559     26560     26561     26560     26562     26561     26562
     26563     26564     26563     26565     26564     26565     26566     26567
     26566     26568     26567     26568     26569     26570     26569     26571
     26570     26571     26572     26573     26572     26574     26573     26574
     26575     26576     26575     26577     26576     26577     26578     26579
     26578     26580     26579     26580     26581     26582     26581     26583
     26582     26583     26584     26585     26584     26586     26585     26586
     26587     26588     26587     26589     26588     26589     26590     26591
     26590     26592     26591     26592     26593     26594     26593     26595
     26594     26595     26596     26597     26596     26598     26597     26598
     26599     26600     26599     26601     26600     26601     26602     26603
     26602     26604     26603     26604     26605     26606     26605     26607
     26606     26607     26608     26609     26608     26610     26609     26610
     26611     26612     26611     26613     26612     26613     26614     26615
     26614     26616     26615     26616     26617     26618     26617     26619
     26618     26619     26620     26621     26620     26622     26621     26622
     26623     26624     26623     26625     26624     26625     26626     26627
     26626     26628     26627     26628     26629     26630     26629     26631
     26630     26631     26632     26633     26632     26634     26633     26634
     26635     26636     26635     26637     26636     26637     26638     26639
     26638     26640     26639     26640     26641     26642     26641     26643
     26642     26643     26644     26645     26644     26646     26645     26646
     26647     26648     26647     26649     26648     26649     26650     26651
     26650     26652     26651     26652     26653     26654     26653     26655
     26654     26655     26656     26657     26656     26658     26657     26658
     26659     26660     26659     26661     26660     26661     26662     26663
     26662     26664     26663     26664     26665     26666     26665     26667
     26666     26667     26668     26669     26668     26670     26669     26670
     26671     26672     26671     26673     26672     26673     26674     26675
     26674     26676     26675     26676     26677     26678     26677     26679
     26678     26679     26680     26681     26680     26682     26681     26682
     26683     26684     26683     26685     26684     26685     26686     26687
     26686     26688     26687     26688     26689     26690     26689     26691
     26690     26691     26692     26693     26692     26694     26693     26694
     26695     26696     26695     26697     26696     26697     26698     26699
     26698     26700     26699     26700     26701     26702     26701     26703
     26702     26703     26704     26705     26704     26706     26705     26706
     26707     26708     26707     26709     26708     26709     26710     26711
     26710     26712     26711     26712     26713     26714     26713     26715
     26714     26715     26716     26717     26716     26718     26717     26718
     26719     26720     26719     26721     26720     26721     26722     26723
     26722     26724     26723     26724     26725     26726     26725     26727
     26726     26727     26728     26729     26728     26730     26729     26730
     26731     26732     26731     26733     26732     26733     26734     26735
     26734     26736     26735     26736     26737     26738     26737     26739
     26738     26739     26740     26741     26740     26742     26741     26742
     26743     26744     26743     26745     26744     26745     26746     26747
     26746     26748     26747     26748     26749     26750     26749     26751
     26750     26751     26752     26753     26752     26754     26753     26754
     26755     26756     26755     26757     26756     26757     26758     26759
     26758     26760     26759     26760     26761     26762     26761     26763
     26762     26763     26764     26765     26764     26766     26765     26766
     26767     26768     26767     26769     26768     26769     26770     26771
     26770     26772     26771     26772     26773     26774     26773     26775
     26774     26775     26776     26777     26776     26778     26777     26778
     26779     26780     26779     26781     26780     26781     26782     26783
     26782     26784     26783     26784     26785     26786     26785     26787
     26786     26787     26788     26789     26788     26790     26789     26790
     26791     26792     26791     26793     26792     26793     26794     26795
     26794     26796     26795     26796     26797     26798     26797     26799
     26798     26799     26800     26801     26800     26802     26801     26802
     26803     26804     26803     26805     26804     26805     26806     26807
     26806     26808     26807     26808     26809     26810     26809     26811
     26810     26811     26812     26813     26812     26814     26813     26814
     26815     26816     26815     26817     26816     26817     26818     26819
     26818     26820     26819     26820     26821     26822     26821     26823
     26822     26823     26824     26825     26824     26826     26825     26826
     26827     26828     26827     26829     26828     26829     26830     26831
     26830     26832     26831     26832     26833     26834     26833     26835
     26834     26835     26836     26837     26836     26838     26837     26838
     26839     26840     26839     26841     26840     26841     26842     26843
     26842     26844     26843     26844     26845     26846     26845     26847
     26846     26847     26848     26849     26848     26850     26849     26850
     26851     26852     26851     26853     26852     26853     26854     26855
     26854     26856     26855     26856     26857     26858     26857     26859
     26858     26859     26860     26861     26860     26862     26861     26862
     26863     26864     26863     26865     26864     26865     26866     26867
     26866     26868     26867     26868     26869     26870     26869     26871
     26870     26871     26872     26873     26872     26874     26873     26874
     26875     26876     26875     26877     26876     26877     26878     26879
     26878     26880     26879     26880     26881     26882     26881     26883
     26882     26883     26884     26885     26884     26886     26885     26886
     26887     26888     26887     26889     26888     26889     26890     26891
     26890     26892     26891     26892     26893     26894     26893     26895
     26894     26895     26896     26897     26896     26898     26897     26898
     26899     26900     26899     26901     26900     26901     26902     26903
     26902     26904     26903     26904     26905     26906     26905     26907
     26906     26907     26908     26909     26908     26910     26909     26910
     26911     26912     26911     26913     26912     26913     26914     26915
     26914     26916     26915     26916     26917     26918     26917     26919
     26918     26919     26920     26921     26920     26922     26921     26922
     26923     26924     26923     26925     26924     26925     26926     26927
     26926     26928     26927     26928     26929     26930     26929     26931
     26930     26931     26932     26933     26932     26934     26933     26934
     26935     26936     26935     26937     26936     26937     26938     26939
     26938     26940     26939     26940     26941     26942     26941     26943
     26942     26943     26944     26945     26944     26946     26945     26946
     26947     26948     26947     26949     26948     26949     26950     26951
     26950     26952     26951     26952     26953     26954     26953     26955
     26954     26955     26956     26957     26956     26958     26957     26958
     26959     26960     26959     26961     26960     26961     26962     26963
     26962     26964     26963     26964     26965     26966     26965     26967
     26966     26967     26968     26969     26968     26970     26969     26970
     26971     26972     26971     26973     26972     26973     26974     26975
     26974     26976     26975     26976     26977     26978     26977     26979
     26978     26979     26980     26981     26980     26982     26981     26982
     26983     26984     26983     26985     26984     26985     26986     26987
     26986     26988     26987     26988     26989     26990     26989     26991
     26990     26991     26992     26993     26992     26994     26993     26994
     26995     26996     26995     26997     26996     26997     26998     26999
     26998     27000     26999     27000     27001     27002     27001     27003
     27002     27003     27004     27005     27004     27006     27005     27006
     27007     27008     27007     27009     27008     27009     27010     27011
     27010     27012     27011     27012     27013     27014     27013     27015
     27014     27015     27016     27017     27016     27018     27017     27018
     27019     27020     27019     27021     27020     27021     27022     27023
     27022     27024     27023     27024     27025     27026     27025     27027
     27026     27027     27028     27029     27028     27030     27029     27030
     27031     27032     27031     27033     27032     27033     27034     27035
     27034     27036     27035     27036     27037     27038     27037     27039
     27038     27039     27040     27041     27040     27042     27041     27042
     27043     27044     27043     27045     27044     27045     27046     27047
     27046     27048     27047     27048     27049     27050     27049     27051
     27050     27051     27052     27053     27052     27054     27053     27054
     27055     27056     27055     27057     27056     27057     27058     27059
     27058     27060     27059     27060     27061     27062     27061     27063
     27062     27063     27064     27065     27064     27066     27065     27066
     27067     27068     27067     27069     27068     27069     27070     27071
     27070     27072     27071     27072     27073     27074     27073     27075
     27074     27075     27076     27077     27076     27078     27077     27078
     27079     27080     27079     27081     27080     27081     27082     27083
     27082     27084     27083     27084     27085     27086     27085     27087
     27086     27087     27088     27089     27088     27090     27089     27090
     27091     27092     27091     27093     27092     27093     27094     27095
     27094     27096     27095     27096     27097     27098     27097     27099
     27098     27099     27100     27101     27100     27102     27101     27102
     27103     27104     27103     27105     27104     27105     27106     27107
     27106     27108     27107     27108     27109     27110     27109     27111
     27110     27111     27112     27113     27112     27114     27113     27114
     27115     27116     27115     27117     27116     27117     27118     27119
     27118     27120     27119     27120     27121     27122     27121     27123
     27122     27123     27124     27125     27124     27126     27125     27126
     27127     27128     27127     27129     27128     27129     27130     27131
     27130     27132     27131     27132     27133     27134     27133     27135
     27134     27135     27136     27137     27136     27138     27137     27138
     27139     27140     27139     27141     27140     27141     27142     27143
     27142     27144     27143     27144     27145     27146     27145     27147
     27146     27147     27148     27149     27148     27150     27149     27150
     27151     27152     27151     27153     27152     27153     27154     27155
     27154     27156     27155     27156     27157     27158     27157     27159
     27158     27159     27160     27161     27160     27162     27161     27162
     27163     27164     27163     27165     27164     27165     27166     27167
     27166     27168     27167     27168     27169     27170     27169     27171
     27170     27171     27172     27173     27172     27174     27173     27174
     27175     27176     27175     27177     27176     27177     27178     27179
     27178     27180     27179     27180     27181     27182     27181     27183
     27182     27183     27184     27185     27184     27186     27185     27186
     27187     27188     27187     27189     27188     27189     27190     27191
     27190     27192     27191     27192     27193     27194     27193     27195
     27194     27195     27196     27197     27196     27198     27197     27198
     27199     27200     27199     27201     27200     27201     27202     27203
     27202     27204     27203     27204     27205     27206     27205     27207
     27206     27207     27208     27209     27208     27210     27209     27210
     27211     27212     27211     27213     27212     27213     27214     27215
     27214     27216     27215     27216     27217     27218     27217     27219
     27218     27219     27220     27221     27220     27222     27221     27222
     27223     27224     27223     27225     27224     27225     27226     27227
     27226     27228     27227     27228     27229     27230     27229     27231
     27230     27231     27232     27233     27232     27234     27233     27234
     27235     27236     27235     27237     27236     27237     27238     27239
     27238     27240     27239     27240     27241     27242     27241     27243
     27242     27243     27244     27245     27244     27246     27245     27246
     27247     27248     27247     27249     27248     27249     27250     27251
     27250     27252     27251     27252     27253     27254     27253     27255
     27254     27255     27256     27257     27256     27258     27257     27258
     27259     27260     27259     27261     27260     27261     27262     27263
     27262     27264     27263     27264     27265     27266     27265     27267
     27266     27267     27268     27269     27268     27270     27269     27270
     27271     27272     27271     27273     27272     27273     27274     27275
     27274     27276     27275     27276     27277     27278     27277     27279
     27278     27279     27280     27281     27280     27282     27281     27282
     27283     27284     27283     27285     27284     27285     27286     27287
     27286     27288     27287     27288     27289     27290     27289     27291
     27290     27291     27292     27293     27292     27294     27293     27294
     27295     27296     27295     27297     27296     27297     27298     27299
     27298     27300     27299     27300     27301     27302     27301     27303
     27302     27303     27304     27305     27304     27306     27305     27306
     27307     27308     27307     27309     27308     27309     27310     27311
     27310     27312     27311     27312     27313     27314     27313     27315
     27314     27315     27316     27317     27316     27318     27317     27318
     27319     27320     27319     27321     27320     27321     27322     27323
     27322     27324     27323     27324     27325     27326     27325     27327
     27326     27327     27328     27329     27328     27330     27329     27330
     27331     27332     27331     27333     27332     27333     27334     27335
     27334     27336     27335     27336     27337     27338     27337     27339
     27338     27339     27340     27341     27340     27342     27341     27342
     27343     27344     27343     27345     27344     27345     27346     27347
     27346     27348     27347     27348     27349     27350     27349     27351
     27350     27351     27352     27353     27352     27354     27353     27354
     27355     27356     27355     27357     27356     27357     27358     27359
     27358     27360     27359     27360     27361     27362     27361     27363
     27362     27363     27364     27365     27364     27366     27365     27366
     27367     27368     27367     27369     27368     27369     27370     27371
     27370     27372     27371     27372     27373     27374     27373     27375
     27374     27375     27376     27377     27376     27378     27377     27378
     27379     27380     27379     27381     27380     27381     27382     27383
     27382     27384     27383     27384     27385     27386     27385     27387
     27386     27387     27388     27389     27388     27390     27389     27390
     27391     27392     27391     27393     27392     27393     27394     27395
     27394     27396     27395     27396     27397     27398     27397     27399
     27398     27399     27400     27401     27400     27402     27401     27402
     27403     27404     27403     27405     27404     27405     27406     27407
     27406     27408     27407     27408     27409     27410     27409     27411
     27410     27411     27412     27413     27412     27414     27413     27414
     27415     27416     27415     27417     27416     27417     27418     27419
     27418     27420     27419     27420     27421     27422     27421     27423
     27422     27423     27424     27425     27424     27426     27425     27426
     27427     27428     27427     27429     27428     27429     27430     27431
     27430     27432     27431     27432     27433     27434     27433     27435
     27434     27435     27436     27437     27436     27438     27437     27438
     27439     27440     27439     27441     27440     27441     27442     27443
     27442     27444     27443     27444     27445     27446     27445     27447
     27446     27447     27448     27449     27448     27450     27449     27450
     27451     27452     27451     27453     27452     27453     27454     27455
     27454     27456     27455     27456     27457     27458     27457     27459
     27458     27459     27460     27461     27460     27462     27461     27462
     27463     27464     27463     27465     27464     27465     27466     27467
     27466     27468     27467     27468     27469     27470     27469     27471
     27470     27471     27472     27473     27472     27474     27473     27474
     27475     27476     27475     27477     27476     27477     27478     27479
     27478     27480     27479     27480     27481     27482     27481     27483
     27482     27483     27484     27485     27484     27486     27485     27486
     27487     27488     27487     27489     27488     27489     27490     27491
     27490     27492     27491     27492     27493     27494     27493     27495
     27494     27495     27496     27497     27496     27498     27497     27498
     27499     27500     27499     27501     27500     27501     27502     27503
     27502     27504     27503     27504     27505     27506     27505     27507
     27506     27507     27508     27509     27508     27510     27509     27510
     27511     27512     27511     27513     27512     27513     27514     27515
     27514     27516     27515     27516     27517     27518     27517     27519
     27518     27519     27520     27521     27520     27522     27521     27522
     27523     27524     27523     27525     27524     27525     27526     27527
     27526     27528     27527     27528     27529     27530     27529     27531
     27530     27531     27532     27533     27532     27534     27533     27534
     27535     27536     27535     27537     27536     27537     27538     27539
     27538     27540     27539     27540     27541     27542     27541     27543
     27542     27543     27544     27545     27544     27546     27545     27546
     27547     27548     27547     27549     27548     27549     27550     27551
     27550     27552     27551     27552     27553     27554     27553     27555
     27554     27555     27556     27557     27556     27558     27557     27558
     27559     27560     27559     27561     27560     27561     27562     27563
     27562     27564     27563     27564     27565     27566     27565     27567
     27566     27567     27568     27569     27568     27570     27569     27570
     27571     27572     27571     27573     27572     27573     27574     27575
     27574     27576     27575     27576     27577     27578     27577     27579
     27578     27579     27580     27581     27580     27582     27581     27582
     27583     27584     27583     27585     27584     27585     27586     27587
     27586     27588     27587     27588     27589     27590     27589     27591
     27590     27591     27592     27593     27592     27594     27593     27594
     27595     27596     27595     27597     27596     27597     27598     27599
     27598     27600     27599     27600     27601     27602     27601     27603
     27602     27603     27604     27605     27604     27606     27605     27606
     27607     27608     27607     27609     27608     27609     27610     27611
     27610     27612     27611     27612     27613     27614     27613     27615
     27614     27615     27616     27617     27616     27618     27617     27618
     27619     27620     27619     27621     27620     27621     27622     27623
     27622     27624     27623     27624     27625     27626     27625     27627
     27626     27627     27628     27629     27628     27630     27629     27630
     27631     27632     27631     27633     27632     27633     27634     27635
     27634     27636     27635     27636     27637     27638     27637     27639
     27638     27639     27640     27641     27640     27642     27641     27642
     27643     27644     27643     27645     27644     27645     27646     27647
     27646     27648     27647     27648     27649     27650     27649     27651
     27650     27651     27652     27653     27652     27654     27653     27654
     27655     27656     27655     27657     27656     27657     27658     27659
     27658     27660     27659     27660     27661     27662     27661     27663
     27662     27663     27664     27665     27664     27666     27665     27666
     27667     27668     27667     27669     27668     27669     27670     27671
     27670     27672     27671     27672     27673     27674     27673     27675
     27674     27675     27676     27677     27676     27678     27677     27678
     27679     27680     27679     27681     27680     27681     27682     27683
     27682     27684     27683     27684     27685     27686     27685     27687
     27686     27687     27688     27689     27688     27690     27689     27690
     27691     27692     27691     27693     27692     27693     27694     27695
     27694     27696     27695     27696     27697     27698     27697     27699
     27698     27699     27700     27701     27700     27702     27701     27702
     27703     27704     27703     27705     27704     27705     27706     27707
     27706     27708     27707     27708     27709     27710     27709     27711
     27710     27711     27712     27713     27712     27714     27713     27714
     27715     27716     27715     27717     27716     27717     27718     27719
     27718     27720     27719     27720     27721     27722     27721     27723
     27722     27723     27724     27725     27724     27726     27725     27726
     27727     27728     27727     27729     27728     27729     27730     27731
     27730     27732     27731     27732     27733     27734     27733     27735
     27734     27735     27736     27737     27736     27738     27737     27738
     27739     27740     27739     27741     27740     27741     27742     27743
     27742     27744     27743     27744     27745     27746     27745     27747
     27746     27747     27748     27749     27748     27750     27749     27750
     27751     27752     27751     27753     27752     27753     27754     27755
     27754     27756     27755     27756     27757     27758     27757     27759
     27758     27759     27760     27761     27760     27762     27761     27762
     27763     27764     27763     27765     27764     27765     27766     27767
     27766     27768     27767     27768     27769     27770     27769     27771
     27770     27771     27772     27773     27772     27774     27773     27774
     27775     27776     27775     27777     27776     27777     27778     27779
     27778     27780     27779     27780     27781     27782     27781     27783
     27782     27783     27784     27785     27784     27786     27785     27786
     27787     27788     27787     27789     27788     27789     27790     27791
     27790     27792     27791     27792     27793     27794     27793     27795
     27794     27795     27796     27797     27796     27798     27797     27798
     27799     27800     27799     27801     27800     27801     27802     27803
     27802     27804     27803     27804     27805     27806     27805     27807
     27806     27807     27808     27809     27808     27810     27809     27810
     27811     27812     27811     27813     27812     27813     27814     27815
     27814     27816     27815     27816     27817     27818     27817     27819
     27818     27819     27820     27821     27820     27822     27821     27822
     27823     27824     27823     27825     27824     27825     27826     27827
     27826     27828     27827     27828     27829     27830     27829     27831
     27830     27831     27832     27833     27832     27834     27833     27834
     27835     27836     27835     27837     27836     27837     27838     27839
     27838     27840     27839     27840     27841     27842     27841     27843
     27842     27843     27844     27845     27844     27846     27845     27846
     27847     27848     27847     27849     27848     27849     27850     27851
     27850     27852     27851     27852     27853     27854     27853     27855
     27854     27855     27856     27857     27856     27858     27857     27858
     27859     27860     27859     27861     27860     27861     27862     27863
     27862     27864     27863     27864     27865     27866     27865     27867
     27866     27867     27868     27869     27868     27870     27869     27870
     27871     27872     27871     27873     27872     27873     27874     27875
     27874     27876     27875     27876     27877     27878     27877     27879
     27878     27879     27880     27881     27880     27882     27881     27882
     27883     27884     27883     27885     27884     27885     27886     27887
     27886     27888     27887     27888     27889     27890     27889     27891
     27890     27891     27892     27893     27892     27894     27893     27894
     27895     27896     27895     27897     27896     27897     27898     27899
     27898     27900     27899     27900     27901     27902     27901     27903
     27902     27903     27904     27905     27904     27906     27905     27906
     27907     27908     27907     27909     27908     27909     27910     27911
     27910     27912     27911     27912     27913     27914     27913     27915
     27914     27915     27916     27917     27916     27918     27917     27918
     27919     27920     27919     27921     27920     27921     27922     27923
     27922     27924     27923     27924     27925     27926     27925     27927
     27926     27927     27928     27929     27928     27930     27929     27930
     27931     27932     27931     27933     27932     27933     27934     27935
     27934     27936     27935     27936     27937     27938     27937     27939
     27938     27939     27940     27941     27940     27942     27941     27942
     27943     27944     27943     27945     27944     27945     27946     27947
     27946     27948     27947     27948     27949     27950     27949     27951
     27950     27951     27952     27953     27952     27954     27953     27954
     27955     27956     27955     27957     27956     27957     27958     27959
     27958     27960     27959     27960     27961     27962     27961     27963
     27962     27963     27964     27965     27964     27966     27965     27966
     27967     27968     27967     27969     27968     27969     27970     27971
     27970     27972     27971     27972     27973     27974     27973     27975
     27974     27975     27976     27977     27976     27978     27977     27978
     27979     27980     27979     27981     27980     27981     27982     27983
     27982     27984     27983     27984     27985     27986     27985     27987
     27986     27987     27988     27989     27988     27990     27989     27990
     27991     27992     27991     27993     27992     27993     27994     27995
     27994     27996     27995     27996     27997     27998     27997     27999
     27998     27999     28000     28001     28000     28002     28001     28002
     28003     28004     28003     28005     28004     28005     28006     28007
     28006     28008     28007     28008     28009     28010     28009     28011
     28010     28011     28012     28013     28012     28014     28013     28014
     28015     28016     28015     28017     28016     28017     28018     28019
     28018     28020     28019     28020     28021     28022     28021     28023
     28022     28023     28024     28025     28024     28026     28025     28026
     28027     28028     28027     28029     28028     28029     28030     28031
     28030     28032     28031     28032     28033     28034     28033     28035
     28034     28035     28036     28037     28036     28038     28037     28038
     28039     28040     28039     28041     28040     28041     28042     28043
     28042     28044     28043     28044     28045     28046     28045     28047
     28046     28047     28048     28049     28048     28050     28049     28050
     28051     28052     28051     28053     28052     28053     28054     28055
     28054     28056     28055     28056     28057     28058     28057     28059
     28058     28059     28060     28061     28060     28062     28061     28062
     28063     28064     28063     28065     28064     28065     28066     28067
     28066     28068     28067     28068     28069     28070     28069     28071
     28070     28071     28072     28073     28072     28074     28073     28074

     36502 !NTHETA: angles
         2         1         5         2         1         9         2         1        13
         5         1         9         5         1        13         9         1        13
         1         2         3         1         2         4         1         2        17
         3         2         4         3         2        17         4         2        17
         1         5         6         1         5         7         1         5         8
         6         5         7         6         5         8         7         5         8
         1         9        10         1         9        11         1         9        12
        10         9        11        10         9        12        11         9        12
         1        13        14         1        13        15         1        13        16
        14        13        15        14        13        16        15        13        16
         2        17        18         2        17        19         2        17        23
        18        17        19        18        17        23        19        17        23
        21        20        22        21        20        23        21        20        24
        22        20        23        22        20        24        23        20        24
        17        23        20        20        24        25        24        25        26
        24        25        27        24        25        28        26        25        27
        26        25        28        27        25        28        25        28        29
        25        28        30        25        28        36        29        28        30
        29        28        36        30        28        36        28        30        31
        30        31        32        30        31        33        32        31        33
        31        33        34        31        33        35        31        33        45
        34        33        35        34        33        45        35        33        45
        28        36        37        28        36        38        28        36        39
        37        36        38        37        36        39        38        36        39
        36        39        40        39        40        41        39        40        42
        41        40        42        40        42        43        40        42        44
        40        42        92        43        42        44        43        42        92
        44        42        92        33        45        46        33        45        47
        33        45        48        46        45        47        46        45        48
        47        45        48        45        48        49        45        48        50
        45        48        51        49        48        50        49        48        51
        50        48        51        48        51        52        48        51        53
        48        51        54        52        51        53        52        51        54
        53        51        54        51        54        55        51        54        56
        51        54        57        55        54        56        55        54        57
        56        54        57        54        57        58        54        57        59
        54        57        60        58        57        59        58        57        60
        59        57        60        57        60        61        57        60        62
        57        60        63        61        60        62        61        60        63
        62        60        63        60        63        64        60        63        65
        64        63        65        63        65        66        63        65        67
        66        65        67        65        67        68        65        67        69
        65        67        70        68        67        69        68        67        70
        69        67        70        67        70        71        67        70        72
        67        70        73        71        70        72        71        70        73
        72        70        73        70        73        74        70        73        75
        70        73        76        74        73        75        74        73        76
        75        73        76        73        76        77        73        76        78
        73        76        79        77        76        78        77        76        79
        78        76        79        76        79        80        76        79        81
        76        79        82        80        79        81        80        79        82
        81        79        82        79        82        83        79        82        84
        79        82        85        83        82        84        83        82        85
        84        82        85        82        85        86        82        85        87
        82        85        88        86        85        87        86        85        88
        87        85        88        85        88        89        85        88        90
        85        88        91        89        88        90        89        88        91
        90        88        91        42        92        93        42        92        94
        42        92        95        93        92        94        93        92        95
        94        92        95        92        95        96        92        95        97
        92        95        98        96        95        97        96        95        98
        97        95        98        95        98        99        95        98       100
        95        98       101        99        98       100        99        98       101
       100        98       101        98       101       102        98       101       103
        98       101       104       102       101       103       102       101       104
       103       101       104       101       104       105       101       104       106
       101       104       107       105       104       106       105       104       107
       106       104       107       104       107       108       104       107       109
       104       107       110       108       107       109       108       107       110
       109       107       110       107       110       111       107       110       112
       107       110       113       111       110       112       111       110       113
       112       110       113       110       113       114       110       113       115
       110       113       116       114       113       115       114       113       116
       115       113       116       113       116       117       113       116       118
       113       116       119       117       116       118       117       116       119
       118       116       119       116       119       120       116       119       121
       116       119       122       120       119       121       120       119       122
       121       119       122       119       122       123       119       122       124
       119       122       125       123       122       124       123       122       125
       124       122       125       122       125       126       122       125       127
       122       125       128       126       125       127       126       125       128
       127       125       128       125       128       129       125       128       130
       125       128       131       129       128       130       129       128       131
       130       128       131       128       131       132       128       131       133
       128       131       134       132       131       133       132       131       134
       133       131       134       136       135       139       136       135       143
       136       135       147       139       135       143       139       135       147
       143       135       147       135       136       137       135       136       138
       135       136       151       137       136       138       137       136       151
       138       136       151       135       139       140       135       139       141
       135       139       142       140       139       141       140       139       142
       141       139       142       135       143       144       135       143       145
       135       143       146       144       143       145       144       143       146
       145       143       146       135       147       148       135       147       149
       135       147       150       148       147       149       148       147       150
       149       147       150       136       151       152       136       151       153
       136       151       157       152       151       153       152       151       157
       153       151       157       155       154       156       155       154       157
       155       154       158       156       154       157       156       154       158
       157       154       158       151       157       154       154       158       159
       158       159       160       158       159       161       158       159       162
       160       159       161       160       159       162       161       159       162
       159       162       163       159       162       164       159       162       170
       163       162       164       163       162       170       164       162       170
       162       164       165       164       165       166       164       165       167
       166       165       167       165       167       168       165       167       169
       165       167       179       168       167       169       168       167       179
       169       167       179       162       170       171       162       170       172
       162       170       173       171       170       172       171       170       173
       172       170       173       170       173       174       173       174       175
       173       174       176       175       174       176       174       176       177
       174       176       178       174       176       226       177       176       178
       177       176       226       178       176       226       167       179       180
       167       179       181       167       179       182       180       179       181
       180       179       182       181       179       182       179       182       183
       179       182       184       179       182       185       183       182       184
       183       182       185       184       182       185       182       185       186
       182       185       187       182       185       188       186       185       187
       186       185       188       187       185       188       185       188       189
       185       188       190       185       188       191       189       188       190
       189       188       191       190       188       191       188       191       192
       188       191       193       188       191       194       192       191       193
       192       191       194       193       191       194       191       194       195
       191       194       196       191       194       197       195       194       196
       195       194       197       196       194       197       194       197       198
       194       197       199       198       197       199       197       199       200
       197       199       201       200       199       201       199       201       202
       199       201       203       199       201       204       202       201       203
       202       201       204       203       201       204       201       204       205
       201       204       206       201       204       207       205       204       206
       205       204       207       206       204       207       204       207       208
       204       207       209       204       207       210       208       207       209
       208       207       210       209       207       210       207       210       211
       207       210       212       207       210       213       211       210       212
       211       210       213       212       210       213       210       213       214
       210       213       215       210       213       216       214       213       215
       214       213       216       215       213       216       213       216       217
       213       216       218       213       216       219       217       216       218
       217       216       219       218       216       219       216       219       220
       216       219       221       216       219       222       220       219       221
       220       219       222       221       219       222       219       222       223
       219       222       224       219       222       225       223       222       224
       223       222       225       224       222       225       176       226       227
       176       226       228       176       226       229       227       226       228
       227       226       229       228       226       229       226       229       230
       226       229       231       226       229       232       230       229       231
       230       229       232       231       229       232       229       232       233
       229       232       234       229       232       235       233       232       234
       233       232       235       234       232       235       232       235       236
       232       235       237       232       235       238       236       235       237
       236       235       238       237       235       238       235       238       239
       235       238       240       235       238       241       239       238       240
       239       238       241       240       238       241       238       241       242
       238       241       243       238       241       244       242       241       243
       242       241       244       243       241       244       241       244       245
       241       244       246       241       244       247       245       244       246
       245       244       247       246       244       247       244       247       248
       244       247       249       244       247       250       248       247       249
       248       247       250       249       247       250       247       250       251
       247       250       252       247       250       253       251       250       252
       251       250       253       252       250       253       250       253       254
       250       253       255       250       253       256       254       253       255
       254       253       256       255       253       256       253       256       257
       253       256       258       253       256       259       257       256       258
       257       256       259       258       256       259       256       259       260
       256       259       261       256       259       262       260       259       261
       260       259       262       261       259       262       259       262       263
       259       262       264       259       262       265       263       262       264
       263       262       265       264       262       265       262       265       266
       262       265       267       262       265       268       266       265       267
       266       265       268       267       265       268       270       269       273
       270       269       277       270       269       281       273       269       277
       273       269       281       277       269       281       269       270       271
       269       270       272       269       270       285       271       270       272
       271       270       285       272       270       285       269       273       274
       269       273       275       269       273       276       274       273       275
       274       273       276       275       273       276       269       277       278
       269       277       279       269       277       280       278       277       279
       278       277       280       279       277       280       269       281       282
       269       281       283       269       281       284       282       281       283
       282       281       284       283       281       284       270       285       286
       270       285       287       270       285       291       286       285       287
       286       285       291       287       285       291       289       288       290
       289       288       291       289       288       292       290       288       291
       290       288       292       291       288       292       285       291       288
       288       292       293       292       293       294       292       293       295
       292       293       296       294       293       295       294       293       296
       295       293       296       293       296       297       293       296       298
       293       296       304       297       296       298       297       296       304
       298       296       304       296       298       299       298       299       300
       298       299       301       300       299       301       299       301       302
       299       301       303       299       301       313       302       301       303
       302       301       313       303       301       313       296       304       305
       296       304       306       296       304       307       305       304       306
       305       304       307       306       304       307       304       307       308
       307       308       309       307       308       310       309       308       310
       308       310       311       308       310       312       308       310       360
       311       310       312       311       310       360       312       310       360
       301       313       314       301       313       315       301       313       316
       314       313       315       314       313       316       315       313       316
       313       316       317       313       316       318       313       316       319
       317       316       318       317       316       319       318       316       319
       316       319       320       316       319       321       316       319       322
       320       319       321       320       319       322       321       319       322
       319       322       323       319       322       324       319       322       325
       323       322       324       323       322       325       324       322       325
       322       325       326       322       325       327       322       325       328
       326       325       327       326       325       328       327       325       328
       325       328       329       325       328       330       325       328       331
       329       328       330       329       328       331       330       328       331
       328       331       332       328       331       333       332       331       333
       331       333       334       331       333       335       334       333       335
       333       335       336       333       335       337       333       335       338
       336       335       337       336       335       338       337       335       338
       335       338       339       335       338       340       335       338       341
       339       338       340       339       338       341       340       338       341
       338       341       342       338       341       343       338       341       344
       342       341       343       342       341       344       343       341       344
       341       344       345       341       344       346       341       344       347
       345       344       346       345       344       347       346       344       347
       344       347       348       344       347       349       344       347       350
       348       347       349       348       347       350       349       347       350
       347       350       351       347       350       352       347       350       353
       351       350       352       351       350       353       352       350       353
       350       353       354       350       353       355       350       353       356
       354       353       355       354       353       356       355       353       356
       353       356       357       353       356       358       353       356       359
       357       356       358       357       356       359       358       356       359
       310       360       361       310       360       362       310       360       363
       361       360       362       361       360       363       362       360       363
       360       363       364       360       363       365       360       363       366
       364       363       365       364       363       366       365       363       366
       363       366       367       363       366       368       363       366       369
       367       366       368       367       366       369       368       366       369
       366       369       370       366       369       371       366       369       372
       370       369       371       370       369       372       371       369       372
       369       372       373       369       372       374       369       372       375
       373       372       374       373       372       375       374       372       375
       372       375       376       372       375       377       372       375       378
       376       375       377       376       375       378       377       375       378
       375       378       379       375       378       380       375       378       381
       379       378       380       379       378       381       380       378       381
       378       381       382       378       381       383       378       381       384
       382       381       383       382       381       384       383       381       384
       381       384       385       381       384       386       381       384       387
       385       384       386       385       384       387       386       384       387
       384       387       388       384       387       389       384       387       390
       388       387       389       388       387       390       389       387       390
       387       390       391       387       390       392       387       390       393
       391       390       392       391       390       393       392       390       393
       390       393       394       390       393       395       390       393       396
       394       393       395       394       393       396       395       393       396
       393       396       397       393       396       398       393       396       399
       397       396       398       397       396       399       398       396       399
       396       399       400       396       399       401       396       399       402
       400       399       401       400       399       402       401       399       402
       404       403       407       404       403       411       404       403       415
       407       403       411       407       403       415       411       403       415
       403       404       405       403       404       406       403       404       419
       405       404       406       405       404       419       406       404       419
       403       407       408       403       407       409       403       407       410
       408       407       409       408       407       410       409       407       410
       403       411       412       403       411       413       403       411       414
       412       411       413       412       411       414       413       411       414
       403       415       416       403       415       417       403       415       418
       416       415       417       416       415       418       417       415       418
       404       419       420       404       419       421       404       419       425
       420       419       421       420       419       425       421       419       425
       423       422       424       423       422       425       423       422       426
       424       422       425       424       422       426       425       422       426
       419       425       422       422       426       427       426       427       428
       426       427       429       426       427       430       428       427       429
       428       427       430       429       427       430       427       430       431
       427       430       432       427       430       438       431       430       432
       431       430       438       432       430       438       430       432       433
       432       433       434       432       433       435       434       433       435
       433       435       436       433       435       437       433       435       447
       436       435       437       436       435       447       437       435       447
       430       438       439       430       438       440       430       438       441
       439       438       440       439       438       441       440       438       441
       438       441       442       441       442       443       441       442       444
       443       442       444       442       444       445       442       444       446
       442       444       494       445       444       446       445       444       494
       446       444       494       435       447       448       435       447       449
       435       447       450       448       447       449       448       447       450
       449       447       450       447       450       451       447       450       452
       447       450       453       451       450       452       451       450       453
       452       450       453       450       453       454       450       453       455
       450       453       456       454       453       455       454       453       456
       455       453       456       453       456       457       453       456       458
       453       456       459       457       456       458       457       456       459
       458       456       459       456       459       460       456       459       461
       456       459       462       460       459       461       460       459       462
       461       459       462       459       462       463       459       462       464
       459       462       465       463       462       464       463       462       465
       464       462       465       462       465       466       462       465       467
       466       465       467       465       467       468       465       467       469
       468       467       469       467       469       470       467       469       471
       467       469       472       470       469       471       470       469       472
       471       469       472       469       472       473       469       472       474
       469       472       475       473       472       474       473       472       475
       474       472       475       472       475       476       472       475       477
       472       475       478       476       475       477       476       475       478
       477       475       478       475       478       479       475       478       480
       475       478       481       479       478       480       479       478       481
       480       478       481       478       481       482       478       481       483
       478       481       484       482       481       483       482       481       484
       483       481       484       481       484       485       481       484       486
       481       484       487       485       484       486       485       484       487
       486       484       487       484       487       488       484       487       489
       484       487       490       488       487       489       488       487       490
       489       487       490       487       490       491       487       490       492
       487       490       493       491       490       492       491       490       493
       492       490       493       444       494       495       444       494       496
       444       494       497       495       494       496       495       494       497
       496       494       497       494       497       498       494       497       499
       494       497       500       498       497       499       498       497       500
       499       497       500       497       500       501       497       500       502
       497       500       503       501       500       502       501       500       503
       502       500       503       500       503       504       500       503       505
       500       503       506       504       503       505       504       503       506
       505       503       506       503       506       507       503       506       508
       503       506       509       507       506       508       507       506       509
       508       506       509       506       509       510       506       509       511
       506       509       512       510       509       511       510       509       512
       511       509       512       509       512       513       509       512       514
       509       512       515       513       512       514       513       512       515
       514       512       515       512       515       516       512       515       517
       512       515       518       516       515       517       516       515       518
       517       515       518       515       518       519       515       518       520
       515       518       521       519       518       520       519       518       521
       520       518       521       518       521       522       518       521       523
       518       521       524       522       521       523       522       521       524
       523       521       524       521       524       525       521       524       526
       521       524       527       525       524       526       525       524       527
       526       524       527       524       527       528       524       527       529
       524       527       530       528       527       529       528       527       530
       529       527       530       527       530       531       527       530       532
       527       530       533       531       530       532       531       530       533
       532       530       533       530       533       534       530       533       535
       530       533       536       534       533       535       534       533       536
       535       533       536       538       537       541       538       537       545
       538       537       549       541       537       545       541       537       549
       545       537       549       537       538       539       537       538       540
       537       538       553       539       538       540       539       538       553
       540       538       553       537       541       542       537       541       543
       537       541       544       542       541       543       542       541       544
       543       541       544       537       545       546       537       545       547
       537       545       548       546       545       547       546       545       548
       547       545       548       537       549       550       537       549       551
       537       549       552       550       549       551       550       549       552
       551       549       552       538       553       554       538       553       555
       538       553       559       554       553       555       554       553       559
       555       553       559       557       556       558       557       556       559
       557       556       560       558       556       559       558       556       560
       559       556       560       553       559       556       556       560       561
       560       561       562       560       561       563       560       561       564
       562       561       563       562       561       564       563       561       564
       561       564       565       561       564       566       561       564       572
       565       564       566       565       564       572       566       564       572
       564       566       567       566       567       568       566       567       569
       568       567       569       567       569       570       567       569       571
       567       569       581       570       569       571       570       569       581
       571       569       581       564       572       573       564       572       574
       564       572       575       573       572       574       573       572       575
       574       572       575       572       575       576       575       576       577
       575       576       578       577       576       578       576       578       579
       576       578       580       576       578       628       579       578       580
       579       578       628       580       578       628       569       581       582
       569       581       583       569       581       584       582       581       583
       582       581       584       583       581       584       581       584       585
       581       584       586       581       584       587       585       584       586
       585       584       587       586       584       587       584       587       588
       584       587       589       584       587       590       588       587       589
       588       587       590       589       587       590       587       590       591
       587       590       592       587       590       593       591       590       592
       591       590       593       592       590       593       590       593       594
       590       593       595       590       593       596       594       593       595
       594       593       596       595       593       596       593       596       597
       593       596       598       593       596       599       597       596       598
       597       596       599       598       596       599       596       599       600
       596       599       601       600       599       601       599       601       602
       599       601       603       602       601       603       601       603       604
       601       603       605       601       603       606       604       603       605
       604       603       606       605       603       606       603       606       607
       603       606       608       603       606       609       607       606       608
       607       606       609       608       606       609       606       609       610
       606       609       611       606       609       612       610       609       611
       610       609       612       611       609       612       609       612       613
       609       612       614       609       612       615       613       612       614
       613       612       615       614       612       615       612       615       616
       612       615       617       612       615       618       616       615       617
       616       615       618       617       615       618       615       618       619
       615       618       620       615       618       621       619       618       620
       619       618       621       620       618       621       618       621       622
       618       621       623       618       621       624       622       621       623
       622       621       624       623       621       624       621       624       625
       621       624       626       621       624       627       625       624       626
       625       624       627       626       624       627       578       628       629
       578       628       630       578       628       631       629       628       630
       629       628       631       630       628       631       628       631       632
       628       631       633       628       631       634       632       631       633
       632       631       634       633       631       634       631       634       635
       631       634       636       631       634       637       635       634       636
       635       634       637       636       634       637       634       637       638
       634       637       639       634       637       640       638       637       639
       638       637       640       639       637       640       637       640       641
       637       640       642       637       640       643       641       640       642
       641       640       643       642       640       643       640       643       644
       640       643       645       640       643       646       644       643       645
       644       643       646       645       643       646       643       646       647
       643       646       648       643       646       649       647       646       648
       647       646       649       648       646       649       646       649       650
       646       649       651       646       649       652       650       649       651
       650       649       652       651       649       652       649       652       653
       649       652       654       649       652       655       653       652       654
       653       652       655       654       652       655       652       655       656
       652       655       657       652       655       658       656       655       657
       656       655       658       657       655       658       655       658       659
       655       658       660       655       658       661       659       658       660
       659       658       661       660       658       661       658       661       662
       658       661       663       658       661       664       662       661       663
       662       661       664       663       661       664       661       664       665
       661       664       666       661       664       667       665       664       666
       665       664       667       666       664       667       664       667       668
       664       667       669       664       667       670       668       667       669
       668       667       670       669       667       670       672       671       673
       672       671       674       672       671       675       673       671       674
       673       671       675       674       671       675       671       675       676
       671       675       677       671       675       680       676       675       677
       676       675       680       677       675       680       675       677       678
       675       677       679       678       677       679       675       680       681
       675       680       682       675       680       686       681       680       682
       681       680       686       682       680       686       684       683       685
       684       683       686       684       683       687       685       683       686
       685       683       687       686       683       687       680       686       683
       683       687       688       687       688       689       687       688       690
       687       688       691       689       688       690       689       688       691
       690       688       691       688       691       692       688       691       693
       688       691       699       692       691       693       692       691       699
       693       691       699       691       693       694       693       694       695
       693       694       696       695       694       696       694       696       697
       694       696       698       694       696       708       697       696       698
       697       696       708       698       696       708       691       699       700
       691       699       701       691       699       702       700       699       701
       700       699       702       701       699       702       699       702       703
       702       703       704       702       703       705       704       703       705
       703       705       706       703       705       707       703       705       755
       706       705       707       706       705       755       707       705       755
       696       708       709       696       708       710       696       708       711
       709       708       710       709       708       711       710       708       711
       708       711       712       708       711       713       708       711       714
       712       711       713       712       711       714       713       711       714
       711       714       715       711       714       716       711       714       717
       715       714       716       715       714       717       716       714       717
       714       717       718       714       717       719       714       717       720
       718       717       719       718       717       720       719       717       720
       717       720       721       717       720       722       717       720       723
       721       720       722       721       720       723       722       720       723
       720       723       724       720       723       725       720       723       726
       724       723       725       724       723       726       725       723       726
       723       726       727       723       726       728       727       726       728
       726       728       729       726       728       730       729       728       730
       728       730       731       728       730       732       728       730       733
       731       730       732       731       730       733       732       730       733
       730       733       734       730       733       735       730       733       736
       734       733       735       734       733       736       735       733       736
       733       736       737       733       736       738       733       736       739
       737       736       738       737       736       739       738       736       739
       736       739       740       736       739       741       736       739       742
       740       739       741       740       739       742       741       739       742
       739       742       743       739       742       744       739       742       745
       743       742       744       743       742       745       744       742       745
       742       745       746       742       745       747       742       745       748
       746       745       747       746       745       748       747       745       748
       745       748       749       745       748       750       745       748       751
       749       748       750       749       748       751       750       748       751
       748       751       752       748       751       753       748       751       754
       752       751       753       752       751       754       753       751       754
       705       755       756       705       755       757       705       755       758
       756       755       757       756       755       758       757       755       758
       755       758       759       755       758       760       755       758       761
       759       758       760       759       758       761       760       758       761
       758       761       762       758       761       763       758       761       764
       762       761       763       762       761       764       763       761       764
       761       764       765       761       764       766       761       764       767
       765       764       766       765       764       767       766       764       767
       764       767       768       764       767       769       764       767       770
       768       767       769       768       767       770       769       767       770
       767       770       771       767       770       772       767       770       773
       771       770       772       771       770       773       772       770       773
       770       773       774       770       773       775       770       773       776
       774       773       775       774       773       776       775       773       776
       773       776       777       773       776       778       773       776       779
       777       776       778       777       776       779       778       776       779
       776       779       780       776       779       781       776       779       782
       780       779       781       780       779       782       781       779       782
       779       782       783       779       782       784       779       782       785
       783       782       784       783       782       785       784       782       785
       782       785       786       782       785       787       782       785       788
       786       785       787       786       785       788       787       785       788
       785       788       789       785       788       790       785       788       791
       789       788       790       789       788       791       790       788       791
       788       791       792       788       791       793       788       791       794
       792       791       793       792       791       794       793       791       794
       791       794       795       791       794       796       791       794       797
       795       794       796       795       794       797       796       794       797
       799       798       802       799       798       806       799       798       810
       802       798       806       802       798       810       806       798       810
       798       799       800       798       799       801       798       799       814
       800       799       801       800       799       814       801       799       814
       798       802       803       798       802       804       798       802       805
       803       802       804       803       802       805       804       802       805
       798       806       807       798       806       808       798       806       809
       807       806       808       807       806       809       808       806       809
       798       810       811       798       810       812       798       810       813
       811       810       812       811       810       813       812       810       813
       799       814       815       799       814       816       799       814       820
       815       814       816       815       814       820       816       814       820
       818       817       819       818       817       820       818       817       821
       819       817       820       819       817       821       820       817       821
       814       820       817       817       821       822       821       822       823
       821       822       824       821       822       825       823       822       824
       823       822       825       824       822       825       822       825       826
       822       825       827       822       825       833       826       825       827
       826       825       833       827       825       833       825       827       828
       827       828       829       827       828       830       829       828       830
       828       830       831       828       830       832       828       830       842
       831       830       832       831       830       842       832       830       842
       825       833       834       825       833       835       825       833       836
       834       833       835       834       833       836       835       833       836
       833       836       837       836       837       838       836       837       839
       838       837       839       837       839       840       837       839       841
       837       839       889       840       839       841       840       839       889
       841       839       889       830       842       843       830       842       844
       830       842       845       843       842       844       843       842       845
       844       842       845       842       845       846       842       845       847
       842       845       848       846       845       847       846       845       848
       847       845       848       845       848       849       845       848       850
       845       848       851       849       848       850       849       848       851
       850       848       851       848       851       852       848       851       853
       848       851       854       852       851       853       852       851       854
       853       851       854       851       854       855       851       854       856
       851       854       857       855       854       856       855       854       857
       856       854       857       854       857       858       854       857       859
       854       857       860       858       857       859       858       857       860
       859       857       860       857       860       861       857       860       862
       861       860       862       860       862       863       860       862       864
       863       862       864       862       864       865       862       864       866
       862       864       867       865       864       866       865       864       867
       866       864       867       864       867       868       864       867       869
       864       867       870       868       867       869       868       867       870
       869       867       870       867       870       871       867       870       872
       867       870       873       871       870       872       871       870       873
       872       870       873       870       873       874       870       873       875
       870       873       876       874       873       875       874       873       876
       875       873       876       873       876       877       873       876       878
       873       876       879       877       876       878       877       876       879
       878       876       879       876       879       880       876       879       881
       876       879       882       880       879       881       880       879       882
       881       879       882       879       882       883       879       882       884
       879       882       885       883       882       884       883       882       885
       884       882       885       882       885       886       882       885       887
       882       885       888       886       885       887       886       885       888
       887       885       888       839       889       890       839       889       891
       839       889       892       890       889       891       890       889       892
       891       889       892       889       892       893       889       892       894
       889       892       895       893       892       894       893       892       895
       894       892       895       892       895       896       892       895       897
       892       895       898       896       895       897       896       895       898
       897       895       898       895       898       899       895       898       900
       895       898       901       899       898       900       899       898       901
       900       898       901       898       901       902       898       901       903
       898       901       904       902       901       903       902       901       904
       903       901       904       901       904       905       901       904       906
       901       904       907       905       904       906       905       904       907
       906       904       907       904       907       908       904       907       909
       904       907       910       908       907       909       908       907       910
       909       907       910       907       910       911       907       910       912
       907       910       913       911       910       912       911       910       913
       912       910       913       910       913       914       910       913       915
       910       913       916       914       913       915       914       913       916
       915       913       916       913       916       917       913       916       918
       913       916       919       917       916       918       917       916       919
       918       916       919       916       919       920       916       919       921
       916       919       922       920       919       921       920       919       922
       921       919       922       919       922       923       919       922       924
       919       922       925       923       922       924       923       922       925
       924       922       925       922       925       926       922       925       927
       922       925       928       926       925       927       926       925       928
       927       925       928       925       928       929       925       928       930
       925       928       931       929       928       930       929       928       931
       930       928       931       933       932       936       933       932       940
       933       932       944       936       932       940       936       932       944
       940       932       944       932       933       934       932       933       935
       932       933       948       934       933       935       934       933       948
       935       933       948       932       936       937       932       936       938
       932       936       939       937       936       938       937       936       939
       938       936       939       932       940       941       932       940       942
       932       940       943       941       940       942       941       940       943
       942       940       943       932       944       945       932       944       946
       932       944       947       945       944       946       945       944       947
       946       944       947       933       948       949       933       948       950
       933       948       954       949       948       950       949       948       954
       950       948       954       952       951       953       952       951       954
       952       951       955       953       951       954       953       951       955
       954       951       955       948       954       951       951       955       956
       955       956       957       955       956       958       955       956       959
       957       956       958       957       956       959       958       956       959
       956       959       960       956       959       961       956       959       967
       960       959       961       960       959       967       961       959       967
       959       961       962       961       962       963       961       962       964
       963       962       964       962       964       965       962       964       966
       962       964       976       965       964       966       965       964       976
       966       964       976       959       967       968       959       967       969
       959       967       970       968       967       969       968       967       970
       969       967       970       967       970       971       970       971       972
       970       971       973       972       971       973       971       973       974
       971       973       975       971       973      1023       974       973       975
       974       973      1023       975       973      1023       964       976       977
       964       976       978       964       976       979       977       976       978
       977       976       979       978       976       979       976       979       980
       976       979       981       976       979       982       980       979       981
       980       979       982       981       979       982       979       982       983
       979       982       984       979       982       985       983       982       984
       983       982       985       984       982       985       982       985       986
       982       985       987       982       985       988       986       985       987
       986       985       988       987       985       988       985       988       989
       985       988       990       985       988       991       989       988       990
       989       988       991       990       988       991       988       991       992
       988       991       993       988       991       994       992       991       993
       992       991       994       993       991       994       991       994       995
       991       994       996       995       994       996       994       996       997
       994       996       998       997       996       998       996       998       999
       996       998      1000       996       998      1001       999       998      1000
       999       998      1001      1000       998      1001       998      1001      1002
       998      1001      1003       998      1001      1004      1002      1001      1003
      1002      1001      1004      1003      1001      1004      1001      1004      1005
      1001      1004      1006      1001      1004      1007      1005      1004      1006
      1005      1004      1007      1006      1004      1007      1004      1007      1008
      1004      1007      1009      1004      1007      1010      1008      1007      1009
      1008      1007      1010      1009      1007      1010      1007      1010      1011
      1007      1010      1012      1007      1010      1013      1011      1010      1012
      1011      1010      1013      1012      1010      1013      1010      1013      1014
      1010      1013      1015      1010      1013      1016      1014      1013      1015
      1014      1013      1016      1015      1013      1016      1013      1016      1017
      1013      1016      1018      1013      1016      1019      1017      1016      1018
      1017      1016      1019      1018      1016      1019      1016      1019      1020
      1016      1019      1021      1016      1019      1022      1020      1019      1021
      1020      1019      1022      1021      1019      1022       973      1023      1024
       973      1023      1025       973      1023      1026      1024      1023      1025
      1024      1023      1026      1025      1023      1026      1023      1026      1027
      1023      1026      1028      1023      1026      1029      1027      1026      1028
      1027      1026      1029      1028      1026      1029      1026      1029      1030
      1026      1029      1031      1026      1029      1032      1030      1029      1031
      1030      1029      1032      1031      1029      1032      1029      1032      1033
      1029      1032      1034      1029      1032      1035      1033      1032      1034
      1033      1032      1035      1034      1032      1035      1032      1035      1036
      1032      1035      1037      1032      1035      1038      1036      1035      1037
      1036      1035      1038      1037      1035      1038      1035      1038      1039
      1035      1038      1040      1035      1038      1041      1039      1038      1040
      1039      1038      1041      1040      1038      1041      1038      1041      1042
      1038      1041      1043      1038      1041      1044      1042      1041      1043
      1042      1041      1044      1043      1041      1044      1041      1044      1045
      1041      1044      1046      1041      1044      1047      1045      1044      1046
      1045      1044      1047      1046      1044      1047      1044      1047      1048
      1044      1047      1049      1044      1047      1050      1048      1047      1049
      1048      1047      1050      1049      1047      1050      1047      1050      1051
      1047      1050      1052      1047      1050      1053      1051      1050      1052
      1051      1050      1053      1052      1050      1053      1050      1053      1054
      1050      1053      1055      1050      1053      1056      1054      1053      1055
      1054      1053      1056      1055      1053      1056      1053      1056      1057
      1053      1056      1058      1053      1056      1059      1057      1056      1058
      1057      1056      1059      1058      1056      1059      1056      1059      1060
      1056      1059      1061      1056      1059      1062      1060      1059      1061
      1060      1059      1062      1061      1059      1062      1059      1062      1063
      1059      1062      1064      1059      1062      1065      1063      1062      1064
      1063      1062      1065      1064      1062      1065      1067      1066      1068
      1067      1066      1069      1067      1066      1070      1068      1066      1069
      1068      1066      1070      1069      1066      1070      1066      1070      1071
      1066      1070      1072      1066      1070      1075      1071      1070      1072
      1071      1070      1075      1072      1070      1075      1070      1072      1073
      1070      1072      1074      1073      1072      1074      1070      1075      1076
      1070      1075      1077      1070      1075      1081      1076      1075      1077
      1076      1075      1081      1077      1075      1081      1079      1078      1080
      1079      1078      1081      1079      1078      1082      1080      1078      1081
      1080      1078      1082      1081      1078      1082      1075      1081      1078
      1078      1082      1083      1082      1083      1084      1082      1083      1085
      1082      1083      1086      1084      1083      1085      1084      1083      1086
      1085      1083      1086      1083      1086      1087      1083      1086      1088
      1083      1086      1094      1087      1086      1088      1087      1086      1094
      1088      1086      1094      1086      1088      1089      1088      1089      1090
      1088      1089      1091      1090      1089      1091      1089      1091      1092
      1089      1091      1093      1089      1091      1103      1092      1091      1093
      1092      1091      1103      1093      1091      1103      1086      1094      1095
      1086      1094      1096      1086      1094      1097      1095      1094      1096
      1095      1094      1097      1096      1094      1097      1094      1097      1098
      1097      1098      1099      1097      1098      1100      1099      1098      1100
      1098      1100      1101      1098      1100      1102      1098      1100      1150
      1101      1100      1102      1101      1100      1150      1102      1100      1150
      1091      1103      1104      1091      1103      1105      1091      1103      1106
      1104      1103      1105      1104      1103      1106      1105      1103      1106
      1103      1106      1107      1103      1106      1108      1103      1106      1109
      1107      1106      1108      1107      1106      1109      1108      1106      1109
      1106      1109      1110      1106      1109      1111      1106      1109      1112
      1110      1109      1111      1110      1109      1112      1111      1109      1112
      1109      1112      1113      1109      1112      1114      1109      1112      1115
      1113      1112      1114      1113      1112      1115      1114      1112      1115
      1112      1115      1116      1112      1115      1117      1112      1115      1118
      1116      1115      1117      1116      1115      1118      1117      1115      1118
      1115      1118      1119      1115      1118      1120      1115      1118      1121
      1119      1118      1120      1119      1118      1121      1120      1118      1121
      1118      1121      1122      1118      1121      1123      1122      1121      1123
      1121      1123      1124      1121      1123      1125      1124      1123      1125
      1123      1125      1126      1123      1125      1127      1123      1125      1128
      1126      1125      1127      1126      1125      1128      1127      1125      1128
      1125      1128      1129      1125      1128      1130      1125      1128      1131
      1129      1128      1130      1129      1128      1131      1130      1128      1131
      1128      1131      1132      1128      1131      1133      1128      1131      1134
      1132      1131      1133      1132      1131      1134      1133      1131      1134
      1131      1134      1135      1131      1134      1136      1131      1134      1137
      1135      1134      1136      1135      1134      1137      1136      1134      1137
      1134      1137      1138      1134      1137      1139      1134      1137      1140
      1138      1137      1139      1138      1137      1140      1139      1137      1140
      1137      1140      1141      1137      1140      1142      1137      1140      1143
      1141      1140      1142      1141      1140      1143      1142      1140      1143
      1140      1143      1144      1140      1143      1145      1140      1143      1146
      1144      1143      1145      1144      1143      1146      1145      1143      1146
      1143      1146      1147      1143      1146      1148      1143      1146      1149
      1147      1146      1148      1147      1146      1149      1148      1146      1149
      1100      1150      1151      1100      1150      1152      1100      1150      1153
      1151      1150      1152      1151      1150      1153      1152      1150      1153
      1150      1153      1154      1150      1153      1155      1150      1153      1156
      1154      1153      1155      1154      1153      1156      1155      1153      1156
      1153      1156      1157      1153      1156      1158      1153      1156      1159
      1157      1156      1158      1157      1156      1159      1158      1156      1159
      1156      1159      1160      1156      1159      1161      1156      1159      1162
      1160      1159      1161      1160      1159      1162      1161      1159      1162
      1159      1162      1163      1159      1162      1164      1159      1162      1165
      1163      1162      1164      1163      1162      1165      1164      1162      1165
      1162      1165      1166      1162      1165      1167      1162      1165      1168
      1166      1165      1167      1166      1165      1168      1167      1165      1168
      1165      1168      1169      1165      1168      1170      1165      1168      1171
      1169      1168      1170      1169      1168      1171      1170      1168      1171
      1168      1171      1172      1168      1171      1173      1168      1171      1174
      1172      1171      1173      1172      1171      1174      1173      1171      1174
      1171      1174      1175      1171      1174      1176      1171      1174      1177
      1175      1174      1176      1175      1174      1177      1176      1174      1177
      1174      1177      1178      1174      1177      1179      1174      1177      1180
      1178      1177      1179      1178      1177      1180      1179      1177      1180
      1177      1180      1181      1177      1180      1182      1177      1180      1183
      1181      1180      1182      1181      1180      1183      1182      1180      1183
      1180      1183      1184      1180      1183      1185      1180      1183      1186
      1184      1183      1185      1184      1183      1186      1185      1183      1186
      1183      1186      1187      1183      1186      1188      1183      1186      1189
      1187      1186      1188      1187      1186      1189      1188      1186      1189
      1186      1189      1190      1186      1189      1191      1186      1189      1192
      1190      1189      1191      1190      1189      1192      1191      1189      1192
      1194      1193      1197      1194      1193      1201      1194      1193      1205
      1197      1193      1201      1197      1193      1205      1201      1193      1205
      1193      1194      1195      1193      1194      1196      1193      1194      1209
      1195      1194      1196      1195      1194      1209      1196      1194      1209
      1193      1197      1198      1193      1197      1199      1193      1197      1200
      1198      1197      1199      1198      1197      1200      1199      1197      1200
      1193      1201      1202      1193      1201      1203      1193      1201      1204
      1202      1201      1203      1202      1201      1204      1203      1201      1204
      1193      1205      1206      1193      1205      1207      1193      1205      1208
      1206      1205      1207      1206      1205      1208      1207      1205      1208
      1194      1209      1210      1194      1209      1211      1194      1209      1215
      1210      1209      1211      1210      1209      1215      1211      1209      1215
      1213      1212      1214      1213      1212      1215      1213      1212      1216
      1214      1212      1215      1214      1212      1216      1215      1212      1216
      1209      1215      1212      1212      1216      1217      1216      1217      1218
      1216      1217      1219      1216      1217      1220      1218      1217      1219
      1218      1217      1220      1219      1217      1220      1217      1220      1221
      1217      1220      1222      1217      1220      1228      1221      1220      1222
      1221      1220      1228      1222      1220      1228      1220      1222      1223
      1222      1223      1224      1222      1223      1225      1224      1223      1225
      1223      1225      1226      1223      1225      1227      1223      1225      1237
      1226      1225      1227      1226      1225      1237      1227      1225      1237
      1220      1228      1229      1220      1228      1230      1220      1228      1231
      1229      1228      1230      1229      1228      1231      1230      1228      1231
      1228      1231      1232      1231      1232      1233      1231      1232      1234
      1233      1232      1234      1232      1234      1235      1232      1234      1236
      1232      1234      1284      1235      1234      1236      1235      1234      1284
      1236      1234      1284      1225      1237      1238      1225      1237      1239
      1225      1237      1240      1238      1237      1239      1238      1237      1240
      1239      1237      1240      1237      1240      1241      1237      1240      1242
      1237      1240      1243      1241      1240      1242      1241      1240      1243
      1242      1240      1243      1240      1243      1244      1240      1243      1245
      1240      1243      1246      1244      1243      1245      1244      1243      1246
      1245      1243      1246      1243      1246      1247      1243      1246      1248
      1243      1246      1249      1247      1246      1248      1247      1246      1249
      1248      1246      1249      1246      1249      1250      1246      1249      1251
      1246      1249      1252      1250      1249      1251      1250      1249      1252
      1251      1249      1252      1249      1252      1253      1249      1252      1254
      1249      1252      1255      1253      1252      1254      1253      1252      1255
      1254      1252      1255      1252      1255      1256      1252      1255      1257
      1256      1255      1257      1255      1257      1258      1255      1257      1259
      1258      1257      1259      1257      1259      1260      1257      1259      1261
      1257      1259      1262      1260      1259      1261      1260      1259      1262
      1261      1259      1262      1259      1262      1263      1259      1262      1264
      1259      1262      1265      1263      1262      1264      1263      1262      1265
      1264      1262      1265      1262      1265      1266      1262      1265      1267
      1262      1265      1268      1266      1265      1267      1266      1265      1268
      1267      1265      1268      1265      1268      1269      1265      1268      1270
      1265      1268      1271      1269      1268      1270      1269      1268      1271
      1270      1268      1271      1268      1271      1272      1268      1271      1273
      1268      1271      1274      1272      1271      1273      1272      1271      1274
      1273      1271      1274      1271      1274      1275      1271      1274      1276
      1271      1274      1277      1275      1274      1276      1275      1274      1277
      1276      1274      1277      1274      1277      1278      1274      1277      1279
      1274      1277      1280      1278      1277      1279      1278      1277      1280
      1279      1277      1280      1277      1280      1281      1277      1280      1282
      1277      1280      1283      1281      1280      1282      1281      1280      1283
      1282      1280      1283      1234      1284      1285      1234      1284      1286
      1234      1284      1287      1285      1284      1286      1285      1284      1287
      1286      1284      1287      1284      1287      1288      1284      1287      1289
      1284      1287      1290      1288      1287      1289      1288      1287      1290
      1289      1287      1290      1287      1290      1291      1287      1290      1292
      1287      1290      1293      1291      1290      1292      1291      1290      1293
      1292      1290      1293      1290      1293      1294      1290      1293      1295
      1290      1293      1296      1294      1293      1295      1294      1293      1296
      1295      1293      1296      1293      1296      1297      1293      1296      1298
      1293      1296      1299      1297      1296      1298      1297      1296      1299
      1298      1296      1299      1296      1299      1300      1296      1299      1301
      1296      1299      1302      1300      1299      1301      1300      1299      1302
      1301      1299      1302      1299      1302      1303      1299      1302      1304
      1299      1302      1305      1303      1302      1304      1303      1302      1305
      1304      1302      1305      1302      1305      1306      1302      1305      1307
      1302      1305      1308      1306      1305      1307      1306      1305      1308
      1307      1305      1308      1305      1308      1309      1305      1308      1310
      1305      1308      1311      1309      1308      1310      1309      1308      1311
      1310      1308      1311      1308      1311      1312      1308      1311      1313
      1308      1311      1314      1312      1311      1313      1312      1311      1314
      1313      1311      1314      1311      1314      1315      1311      1314      1316
      1311      1314      1317      1315      1314      1316      1315      1314      1317
      1316      1314      1317      1314      1317      1318      1314      1317      1319
      1314      1317      1320      1318      1317      1319      1318      1317      1320
      1319      1317      1320      1317      1320      1321      1317      1320      1322
      1317      1320      1323      1321      1320      1322      1321      1320      1323
      1322      1320      1323      1320      1323      1324      1320      1323      1325
      1320      1323      1326      1324      1323      1325      1324      1323      1326
      1325      1323      1326      1328      1327      1329      1328      1327      1330
      1328      1327      1331      1329      1327      1330      1329      1327      1331
      1330      1327      1331      1327      1331      1332      1327      1331      1333
      1327      1331      1336      1332      1331      1333      1332      1331      1336
      1333      1331      1336      1331      1333      1334      1331      1333      1335
      1334      1333      1335      1331      1336      1337      1331      1336      1338
      1331      1336      1342      1337      1336      1338      1337      1336      1342
      1338      1336      1342      1340      1339      1341      1340      1339      1342
      1340      1339      1343      1341      1339      1342      1341      1339      1343
      1342      1339      1343      1336      1342      1339      1339      1343      1344
      1343      1344      1345      1343      1344      1346      1343      1344      1347
      1345      1344      1346      1345      1344      1347      1346      1344      1347
      1344      1347      1348      1344      1347      1349      1344      1347      1355
      1348      1347      1349      1348      1347      1355      1349      1347      1355
      1347      1349      1350      1349      1350      1351      1349      1350      1352
      1351      1350      1352      1350      1352      1353      1350      1352      1354
      1350      1352      1364      1353      1352      1354      1353      1352      1364
      1354      1352      1364      1347      1355      1356      1347      1355      1357
      1347      1355      1358      1356      1355      1357      1356      1355      1358
      1357      1355      1358      1355      1358      1359      1358      1359      1360
      1358      1359      1361      1360      1359      1361      1359      1361      1362
      1359      1361      1363      1359      1361      1411      1362      1361      1363
      1362      1361      1411      1363      1361      1411      1352      1364      1365
      1352      1364      1366      1352      1364      1367      1365      1364      1366
      1365      1364      1367      1366      1364      1367      1364      1367      1368
      1364      1367      1369      1364      1367      1370      1368      1367      1369
      1368      1367      1370      1369      1367      1370      1367      1370      1371
      1367      1370      1372      1367      1370      1373      1371      1370      1372
      1371      1370      1373      1372      1370      1373      1370      1373      1374
      1370      1373      1375      1370      1373      1376      1374      1373      1375
      1374      1373      1376      1375      1373      1376      1373      1376      1377
      1373      1376      1378      1373      1376      1379      1377      1376      1378
      1377      1376      1379      1378      1376      1379      1376      1379      1380
      1376      1379      1381      1376      1379      1382      1380      1379      1381
      1380      1379      1382      1381      1379      1382      1379      1382      1383
      1379      1382      1384      1383      1382      1384      1382      1384      1385
      1382      1384      1386      1385      1384      1386      1384      1386      1387
      1384      1386      1388      1384      1386      1389      1387      1386      1388
      1387      1386      1389      1388      1386      1389      1386      1389      1390
      1386      1389      1391      1386      1389      1392      1390      1389      1391
      1390      1389      1392      1391      1389      1392      1389      1392      1393
      1389      1392      1394      1389      1392      1395      1393      1392      1394
      1393      1392      1395      1394      1392      1395      1392      1395      1396
      1392      1395      1397      1392      1395      1398      1396      1395      1397
      1396      1395      1398      1397      1395      1398      1395      1398      1399
      1395      1398      1400      1395      1398      1401      1399      1398      1400
      1399      1398      1401      1400      1398      1401      1398      1401      1402
      1398      1401      1403      1398      1401      1404      1402      1401      1403
      1402      1401      1404      1403      1401      1404      1401      1404      1405
      1401      1404      1406      1401      1404      1407      1405      1404      1406
      1405      1404      1407      1406      1404      1407      1404      1407      1408
      1404      1407      1409      1404      1407      1410      1408      1407      1409
      1408      1407      1410      1409      1407      1410      1361      1411      1412
      1361      1411      1413      1361      1411      1414      1412      1411      1413
      1412      1411      1414      1413      1411      1414      1411      1414      1415
      1411      1414      1416      1411      1414      1417      1415      1414      1416
      1415      1414      1417      1416      1414      1417      1414      1417      1418
      1414      1417      1419      1414      1417      1420      1418      1417      1419
      1418      1417      1420      1419      1417      1420      1417      1420      1421
      1417      1420      1422      1417      1420      1423      1421      1420      1422
      1421      1420      1423      1422      1420      1423      1420      1423      1424
      1420      1423      1425      1420      1423      1426      1424      1423      1425
      1424      1423      1426      1425      1423      1426      1423      1426      1427
      1423      1426      1428      1423      1426      1429      1427      1426      1428
      1427      1426      1429      1428      1426      1429      1426      1429      1430
      1426      1429      1431      1426      1429      1432      1430      1429      1431
      1430      1429      1432      1431      1429      1432      1429      1432      1433
      1429      1432      1434      1429      1432      1435      1433      1432      1434
      1433      1432      1435      1434      1432      1435      1432      1435      1436
      1432      1435      1437      1432      1435      1438      1436      1435      1437
      1436      1435      1438      1437      1435      1438      1435      1438      1439
      1435      1438      1440      1435      1438      1441      1439      1438      1440
      1439      1438      1441      1440      1438      1441      1438      1441      1442
      1438      1441      1443      1438      1441      1444      1442      1441      1443
      1442      1441      1444      1443      1441      1444      1441      1444      1445
      1441      1444      1446      1441      1444      1447      1445      1444      1446
      1445      1444      1447      1446      1444      1447      1444      1447      1448
      1444      1447      1449      1444      1447      1450      1448      1447      1449
      1448      1447      1450      1449      1447      1450      1447      1450      1451
      1447      1450      1452      1447      1450      1453      1451      1450      1452
      1451      1450      1453      1452      1450      1453      1455      1454      1456
      1455      1454      1457      1455      1454      1458      1456      1454      1457
      1456      1454      1458      1457      1454      1458      1454      1458      1459
      1454      1458      1460      1454      1458      1463      1459      1458      1460
      1459      1458      1463      1460      1458      1463      1458      1460      1461
      1458      1460      1462      1461      1460      1462      1458      1463      1464
      1458      1463      1465      1458      1463      1469      1464      1463      1465
      1464      1463      1469      1465      1463      1469      1467      1466      1468
      1467      1466      1469      1467      1466      1470      1468      1466      1469
      1468      1466      1470      1469      1466      1470      1463      1469      1466
      1466      1470      1471      1470      1471      1472      1470      1471      1473
      1470      1471      1474      1472      1471      1473      1472      1471      1474
      1473      1471      1474      1471      1474      1475      1471      1474      1476
      1471      1474      1482      1475      1474      1476      1475      1474      1482
      1476      1474      1482      1474      1476      1477      1476      1477      1478
      1476      1477      1479      1478      1477      1479      1477      1479      1480
      1477      1479      1481      1477      1479      1491      1480      1479      1481
      1480      1479      1491      1481      1479      1491      1474      1482      1483
      1474      1482      1484      1474      1482      1485      1483      1482      1484
      1483      1482      1485      1484      1482      1485      1482      1485      1486
      1485      1486      1487      1485      1486      1488      1487      1486      1488
      1486      1488      1489      1486      1488      1490      1486      1488      1538
      1489      1488      1490      1489      1488      1538      1490      1488      1538
      1479      1491      1492      1479      1491      1493      1479      1491      1494
      1492      1491      1493      1492      1491      1494      1493      1491      1494
      1491      1494      1495      1491      1494      1496      1491      1494      1497
      1495      1494      1496      1495      1494      1497      1496      1494      1497
      1494      1497      1498      1494      1497      1499      1494      1497      1500
      1498      1497      1499      1498      1497      1500      1499      1497      1500
      1497      1500      1501      1497      1500      1502      1497      1500      1503
      1501      1500      1502      1501      1500      1503      1502      1500      1503
      1500      1503      1504      1500      1503      1505      1500      1503      1506
      1504      1503      1505      1504      1503      1506      1505      1503      1506
      1503      1506      1507      1503      1506      1508      1503      1506      1509
      1507      1506      1508      1507      1506      1509      1508      1506      1509
      1506      1509      1510      1506      1509      1511      1510      1509      1511
      1509      1511      1512      1509      1511      1513      1512      1511      1513
      1511      1513      1514      1511      1513      1515      1511      1513      1516
      1514      1513      1515      1514      1513      1516      1515      1513      1516
      1513      1516      1517      1513      1516      1518      1513      1516      1519
      1517      1516      1518      1517      1516      1519      1518      1516      1519
      1516      1519      1520      1516      1519      1521      1516      1519      1522
      1520      1519      1521      1520      1519      1522      1521      1519      1522
      1519      1522      1523      1519      1522      1524      1519      1522      1525
      1523      1522      1524      1523      1522      1525      1524      1522      1525
      1522      1525      1526      1522      1525      1527      1522      1525      1528
      1526      1525      1527      1526      1525      1528      1527      1525      1528
      1525      1528      1529      1525      1528      1530      1525      1528      1531
      1529      1528      1530      1529      1528      1531      1530      1528      1531
      1528      1531      1532      1528      1531      1533      1528      1531      1534
      1532      1531      1533      1532      1531      1534      1533      1531      1534
      1531      1534      1535      1531      1534      1536      1531      1534      1537
      1535      1534      1536      1535      1534      1537      1536      1534      1537
      1488      1538      1539      1488      1538      1540      1488      1538      1541
      1539      1538      1540      1539      1538      1541      1540      1538      1541
      1538      1541      1542      1538      1541      1543      1538      1541      1544
      1542      1541      1543      1542      1541      1544      1543      1541      1544
      1541      1544      1545      1541      1544      1546      1541      1544      1547
      1545      1544      1546      1545      1544      1547      1546      1544      1547
      1544      1547      1548      1544      1547      1549      1544      1547      1550
      1548      1547      1549      1548      1547      1550      1549      1547      1550
      1547      1550      1551      1547      1550      1552      1547      1550      1553
      1551      1550      1552      1551      1550      1553      1552      1550      1553
      1550      1553      1554      1550      1553      1555      1550      1553      1556
      1554      1553      1555      1554      1553      1556      1555      1553      1556
      1553      1556      1557      1553      1556      1558      1553      1556      1559
      1557      1556      1558      1557      1556      1559      1558      1556      1559
      1556      1559      1560      1556      1559      1561      1556      1559      1562
      1560      1559      1561      1560      1559      1562      1561      1559      1562
      1559      1562      1563      1559      1562      1564      1559      1562      1565
      1563      1562      1564      1563      1562      1565      1564      1562      1565
      1562      1565      1566      1562      1565      1567      1562      1565      1568
      1566      1565      1567      1566      1565      1568      1567      1565      1568
      1565      1568      1569      1565      1568      1570      1565      1568      1571
      1569      1568      1570      1569      1568      1571      1570      1568      1571
      1568      1571      1572      1568      1571      1573      1568      1571      1574
      1572      1571      1573      1572      1571      1574      1573      1571      1574
      1571      1574      1575      1571      1574      1576      1571      1574      1577
      1575      1574      1576      1575      1574      1577      1576      1574      1577
      1574      1577      1578      1574      1577      1579      1574      1577      1580
      1578      1577      1579      1578      1577      1580      1579      1577      1580
      1582      1581      1585      1582      1581      1589      1582      1581      1593
      1585      1581      1589      1585      1581      1593      1589      1581      1593
      1581      1582      1583      1581      1582      1584      1581      1582      1597
      1583      1582      1584      1583      1582      1597      1584      1582      1597
      1581      1585      1586      1581      1585      1587      1581      1585      1588
      1586      1585      1587      1586      1585      1588      1587      1585      1588
      1581      1589      1590      1581      1589      1591      1581      1589      1592
      1590      1589      1591      1590      1589      1592      1591      1589      1592
      1581      1593      1594      1581      1593      1595      1581      1593      1596
      1594      1593      1595      1594      1593      1596      1595      1593      1596
      1582      1597      1598      1582      1597      1599      1582      1597      1603
      1598      1597      1599      1598      1597      1603      1599      1597      1603
      1601      1600      1602      1601      1600      1603      1601      1600      1604
      1602      1600      1603      1602      1600      1604      1603      1600      1604
      1597      1603      1600      1600      1604      1605      1604      1605      1606
      1604      1605      1607      1604      1605      1608      1606      1605      1607
      1606      1605      1608      1607      1605      1608      1605      1608      1609
      1605      1608      1610      1605      1608      1616      1609      1608      1610
      1609      1608      1616      1610      1608      1616      1608      1610      1611
      1610      1611      1612      1610      1611      1613      1612      1611      1613
      1611      1613      1614      1611      1613      1615      1611      1613      1625
      1614      1613      1615      1614      1613      1625      1615      1613      1625
      1608      1616      1617      1608      1616      1618      1608      1616      1619
      1617      1616      1618      1617      1616      1619      1618      1616      1619
      1616      1619      1620      1619      1620      1621      1619      1620      1622
      1621      1620      1622      1620      1622      1623      1620      1622      1624
      1620      1622      1672      1623      1622      1624      1623      1622      1672
      1624      1622      1672      1613      1625      1626      1613      1625      1627
      1613      1625      1628      1626      1625      1627      1626      1625      1628
      1627      1625      1628      1625      1628      1629      1625      1628      1630
      1625      1628      1631      1629      1628      1630      1629      1628      1631
      1630      1628      1631      1628      1631      1632      1628      1631      1633
      1628      1631      1634      1632      1631      1633      1632      1631      1634
      1633      1631      1634      1631      1634      1635      1631      1634      1636
      1631      1634      1637      1635      1634      1636      1635      1634      1637
      1636      1634      1637      1634      1637      1638      1634      1637      1639
      1634      1637      1640      1638      1637      1639      1638      1637      1640
      1639      1637      1640      1637      1640      1641      1637      1640      1642
      1637      1640      1643      1641      1640      1642      1641      1640      1643
      1642      1640      1643      1640      1643      1644      1640      1643      1645
      1644      1643      1645      1643      1645      1646      1643      1645      1647
      1646      1645      1647      1645      1647      1648      1645      1647      1649
      1645      1647      1650      1648      1647      1649      1648      1647      1650
      1649      1647      1650      1647      1650      1651      1647      1650      1652
      1647      1650      1653      1651      1650      1652      1651      1650      1653
      1652      1650      1653      1650      1653      1654      1650      1653      1655
      1650      1653      1656      1654      1653      1655      1654      1653      1656
      1655      1653      1656      1653      1656      1657      1653      1656      1658
      1653      1656      1659      1657      1656      1658      1657      1656      1659
      1658      1656      1659      1656      1659      1660      1656      1659      1661
      1656      1659      1662      1660      1659      1661      1660      1659      1662
      1661      1659      1662      1659      1662      1663      1659      1662      1664
      1659      1662      1665      1663      1662      1664      1663      1662      1665
      1664      1662      1665      1662      1665      1666      1662      1665      1667
      1662      1665      1668      1666      1665      1667      1666      1665      1668
      1667      1665      1668      1665      1668      1669      1665      1668      1670
      1665      1668      1671      1669      1668      1670      1669      1668      1671
      1670      1668      1671      1622      1672      1673      1622      1672      1674
      1622      1672      1675      1673      1672      1674      1673      1672      1675
      1674      1672      1675      1672      1675      1676      1672      1675      1677
      1672      1675      1678      1676      1675      1677      1676      1675      1678
      1677      1675      1678      1675      1678      1679      1675      1678      1680
      1675      1678      1681      1679      1678      1680      1679      1678      1681
      1680      1678      1681      1678      1681      1682      1678      1681      1683
      1678      1681      1684      1682      1681      1683      1682      1681      1684
      1683      1681      1684      1681      1684      1685      1681      1684      1686
      1681      1684      1687      1685      1684      1686      1685      1684      1687
      1686      1684      1687      1684      1687      1688      1684      1687      1689
      1684      1687      1690      1688      1687      1689      1688      1687      1690
      1689      1687      1690      1687      1690      1691      1687      1690      1692
      1687      1690      1693      1691      1690      1692      1691      1690      1693
      1692      1690      1693      1690      1693      1694      1690      1693      1695
      1690      1693      1696      1694      1693      1695      1694      1693      1696
      1695      1693      1696      1693      1696      1697      1693      1696      1698
      1693      1696      1699      1697      1696      1698      1697      1696      1699
      1698      1696      1699      1696      1699      1700      1696      1699      1701
      1696      1699      1702      1700      1699      1701      1700      1699      1702
      1701      1699      1702      1699      1702      1703      1699      1702      1704
      1699      1702      1705      1703      1702      1704      1703      1702      1705
      1704      1702      1705      1702      1705      1706      1702      1705      1707
      1702      1705      1708      1706      1705      1707      1706      1705      1708
      1707      1705      1708      1705      1708      1709      1705      1708      1710
      1705      1708      1711      1709      1708      1710      1709      1708      1711
      1710      1708      1711      1708      1711      1712      1708      1711      1713
      1708      1711      1714      1712      1711      1713      1712      1711      1714
      1713      1711      1714      1716      1715      1719      1716      1715      1723
      1716      1715      1727      1719      1715      1723      1719      1715      1727
      1723      1715      1727      1715      1716      1717      1715      1716      1718
      1715      1716      1731      1717      1716      1718      1717      1716      1731
      1718      1716      1731      1715      1719      1720      1715      1719      1721
      1715      1719      1722      1720      1719      1721      1720      1719      1722
      1721      1719      1722      1715      1723      1724      1715      1723      1725
      1715      1723      1726      1724      1723      1725      1724      1723      1726
      1725      1723      1726      1715      1727      1728      1715      1727      1729
      1715      1727      1730      1728      1727      1729      1728      1727      1730
      1729      1727      1730      1716      1731      1732      1716      1731      1733
      1716      1731      1737      1732      1731      1733      1732      1731      1737
      1733      1731      1737      1735      1734      1736      1735      1734      1737
      1735      1734      1738      1736      1734      1737      1736      1734      1738
      1737      1734      1738      1731      1737      1734      1734      1738      1739
      1738      1739      1740      1738      1739      1741      1738      1739      1742
      1740      1739      1741      1740      1739      1742      1741      1739      1742
      1739      1742      1743      1739      1742      1744      1739      1742      1750
      1743      1742      1744      1743      1742      1750      1744      1742      1750
      1742      1744      1745      1744      1745      1746      1744      1745      1747
      1746      1745      1747      1745      1747      1748      1745      1747      1749
      1745      1747      1759      1748      1747      1749      1748      1747      1759
      1749      1747      1759      1742      1750      1751      1742      1750      1752
      1742      1750      1753      1751      1750      1752      1751      1750      1753
      1752      1750      1753      1750      1753      1754      1753      1754      1755
      1753      1754      1756      1755      1754      1756      1754      1756      1757
      1754      1756      1758      1754      1756      1806      1757      1756      1758
      1757      1756      1806      1758      1756      1806      1747      1759      1760
      1747      1759      1761      1747      1759      1762      1760      1759      1761
      1760      1759      1762      1761      1759      1762      1759      1762      1763
      1759      1762      1764      1759      1762      1765      1763      1762      1764
      1763      1762      1765      1764      1762      1765      1762      1765      1766
      1762      1765      1767      1762      1765      1768      1766      1765      1767
      1766      1765      1768      1767      1765      1768      1765      1768      1769
      1765      1768      1770      1765      1768      1771      1769      1768      1770
      1769      1768      1771      1770      1768      1771      1768      1771      1772
      1768      1771      1773      1768      1771      1774      1772      1771      1773
      1772      1771      1774      1773      1771      1774      1771      1774      1775
      1771      1774      1776      1771      1774      1777      1775      1774      1776
      1775      1774      1777      1776      1774      1777      1774      1777      1778
      1774      1777      1779      1778      1777      1779      1777      1779      1780
      1777      1779      1781      1780      1779      1781      1779      1781      1782
      1779      1781      1783      1779      1781      1784      1782      1781      1783
      1782      1781      1784      1783      1781      1784      1781      1784      1785
      1781      1784      1786      1781      1784      1787      1785      1784      1786
      1785      1784      1787      1786      1784      1787      1784      1787      1788
      1784      1787      1789      1784      1787      1790      1788      1787      1789
      1788      1787      1790      1789      1787      1790      1787      1790      1791
      1787      1790      1792      1787      1790      1793      1791      1790      1792
      1791      1790      1793      1792      1790      1793      1790      1793      1794
      1790      1793      1795      1790      1793      1796      1794      1793      1795
      1794      1793      1796      1795      1793      1796      1793      1796      1797
      1793      1796      1798      1793      1796      1799      1797      1796      1798
      1797      1796      1799      1798      1796      1799      1796      1799      1800
      1796      1799      1801      1796      1799      1802      1800      1799      1801
      1800      1799      1802      1801      1799      1802      1799      1802      1803
      1799      1802      1804      1799      1802      1805      1803      1802      1804
      1803      1802      1805      1804      1802      1805      1756      1806      1807
      1756      1806      1808      1756      1806      1809      1807      1806      1808
      1807      1806      1809      1808      1806      1809      1806      1809      1810
      1806      1809      1811      1806      1809      1812      1810      1809      1811
      1810      1809      1812      1811      1809      1812      1809      1812      1813
      1809      1812      1814      1809      1812      1815      1813      1812      1814
      1813      1812      1815      1814      1812      1815      1812      1815      1816
      1812      1815      1817      1812      1815      1818      1816      1815      1817
      1816      1815      1818      1817      1815      1818      1815      1818      1819
      1815      1818      1820      1815      1818      1821      1819      1818      1820
      1819      1818      1821      1820      1818      1821      1818      1821      1822
      1818      1821      1823      1818      1821      1824      1822      1821      1823
      1822      1821      1824      1823      1821      1824      1821      1824      1825
      1821      1824      1826      1821      1824      1827      1825      1824      1826
      1825      1824      1827      1826      1824      1827      1824      1827      1828
      1824      1827      1829      1824      1827      1830      1828      1827      1829
      1828      1827      1830      1829      1827      1830      1827      1830      1831
      1827      1830      1832      1827      1830      1833      1831      1830      1832
      1831      1830      1833      1832      1830      1833      1830      1833      1834
      1830      1833      1835      1830      1833      1836      1834      1833      1835
      1834      1833      1836      1835      1833      1836      1833      1836      1837
      1833      1836      1838      1833      1836      1839      1837      1836      1838
      1837      1836      1839      1838      1836      1839      1836      1839      1840
      1836      1839      1841      1836      1839      1842      1840      1839      1841
      1840      1839      1842      1841      1839      1842      1839      1842      1843
      1839      1842      1844      1839      1842      1845      1843      1842      1844
      1843      1842      1845      1844      1842      1845      1842      1845      1846
      1842      1845      1847      1842      1845      1848      1846      1845      1847
      1846      1845      1848      1847      1845      1848      1850      1849      1853
      1850      1849      1857      1850      1849      1861      1853      1849      1857
      1853      1849      1861      1857      1849      1861      1849      1850      1851
      1849      1850      1852      1849      1850      1865      1851      1850      1852
      1851      1850      1865      1852      1850      1865      1849      1853      1854
      1849      1853      1855      1849      1853      1856      1854      1853      1855
      1854      1853      1856      1855      1853      1856      1849      1857      1858
      1849      1857      1859      1849      1857      1860      1858      1857      1859
      1858      1857      1860      1859      1857      1860      1849      1861      1862
      1849      1861      1863      1849      1861      1864      1862      1861      1863
      1862      1861      1864      1863      1861      1864      1850      1865      1866
      1850      1865      1867      1850      1865      1871      1866      1865      1867
      1866      1865      1871      1867      1865      1871      1869      1868      1870
      1869      1868      1871      1869      1868      1872      1870      1868      1871
      1870      1868      1872      1871      1868      1872      1865      1871      1868
      1868      1872      1873      1872      1873      1874      1872      1873      1875
      1872      1873      1876      1874      1873      1875      1874      1873      1876
      1875      1873      1876      1873      1876      1877      1873      1876      1878
      1873      1876      1884      1877      1876      1878      1877      1876      1884
      1878      1876      1884      1876      1878      1879      1878      1879      1880
      1878      1879      1881      1880      1879      1881      1879      1881      1882
      1879      1881      1883      1879      1881      1893      1882      1881      1883
      1882      1881      1893      1883      1881      1893      1876      1884      1885
      1876      1884      1886      1876      1884      1887      1885      1884      1886
      1885      1884      1887      1886      1884      1887      1884      1887      1888
      1887      1888      1889      1887      1888      1890      1889      1888      1890
      1888      1890      1891      1888      1890      1892      1888      1890      1940
      1891      1890      1892      1891      1890      1940      1892      1890      1940
      1881      1893      1894      1881      1893      1895      1881      1893      1896
      1894      1893      1895      1894      1893      1896      1895      1893      1896
      1893      1896      1897      1893      1896      1898      1893      1896      1899
      1897      1896      1898      1897      1896      1899      1898      1896      1899
      1896      1899      1900      1896      1899      1901      1896      1899      1902
      1900      1899      1901      1900      1899      1902      1901      1899      1902
      1899      1902      1903      1899      1902      1904      1899      1902      1905
      1903      1902      1904      1903      1902      1905      1904      1902      1905
      1902      1905      1906      1902      1905      1907      1902      1905      1908
      1906      1905      1907      1906      1905      1908      1907      1905      1908
      1905      1908      1909      1905      1908      1910      1905      1908      1911
      1909      1908      1910      1909      1908      1911      1910      1908      1911
      1908      1911      1912      1908      1911      1913      1912      1911      1913
      1911      1913      1914      1911      1913      1915      1914      1913      1915
      1913      1915      1916      1913      1915      1917      1913      1915      1918
      1916      1915      1917      1916      1915      1918      1917      1915      1918
      1915      1918      1919      1915      1918      1920      1915      1918      1921
      1919      1918      1920      1919      1918      1921      1920      1918      1921
      1918      1921      1922      1918      1921      1923      1918      1921      1924
      1922      1921      1923      1922      1921      1924      1923      1921      1924
      1921      1924      1925      1921      1924      1926      1921      1924      1927
      1925      1924      1926      1925      1924      1927      1926      1924      1927
      1924      1927      1928      1924      1927      1929      1924      1927      1930
      1928      1927      1929      1928      1927      1930      1929      1927      1930
      1927      1930      1931      1927      1930      1932      1927      1930      1933
      1931      1930      1932      1931      1930      1933      1932      1930      1933
      1930      1933      1934      1930      1933      1935      1930      1933      1936
      1934      1933      1935      1934      1933      1936      1935      1933      1936
      1933      1936      1937      1933      1936      1938      1933      1936      1939
      1937      1936      1938      1937      1936      1939      1938      1936      1939
      1890      1940      1941      1890      1940      1942      1890      1940      1943
      1941      1940      1942      1941      1940      1943      1942      1940      1943
      1940      1943      1944      1940      1943      1945      1940      1943      1946
      1944      1943      1945      1944      1943      1946      1945      1943      1946
      1943      1946      1947      1943      1946      1948      1943      1946      1949
      1947      1946      1948      1947      1946      1949      1948      1946      1949
      1946      1949      1950      1946      1949      1951      1946      1949      1952
      1950      1949      1951      1950      1949      1952      1951      1949      1952
      1949      1952      1953      1949      1952      1954      1949      1952      1955
      1953      1952      1954      1953      1952      1955      1954      1952      1955
      1952      1955      1956      1952      1955      1957      1952      1955      1958
      1956      1955      1957      1956      1955      1958      1957      1955      1958
      1955      1958      1959      1955      1958      1960      1955      1958      1961
      1959      1958      1960      1959      1958      1961      1960      1958      1961
      1958      1961      1962      1958      1961      1963      1958      1961      1964
      1962      1961      1963      1962      1961      1964      1963      1961      1964
      1961      1964      1965      1961      1964      1966      1961      1964      1967
      1965      1964      1966      1965      1964      1967      1966      1964      1967
      1964      1967      1968      1964      1967      1969      1964      1967      1970
      1968      1967      1969      1968      1967      1970      1969      1967      1970
      1967      1970      1971      1967      1970      1972      1967      1970      1973
      1971      1970      1972      1971      1970      1973      1972      1970      1973
      1970      1973      1974      1970      1973      1975      1970      1973      1976
      1974      1973      1975      1974      1973      1976      1975      1973      1976
      1973      1976      1977      1973      1976      1978      1973      1976      1979
      1977      1976      1978      1977      1976      1979      1978      1976      1979
      1976      1979      1980      1976      1979      1981      1976      1979      1982
      1980      1979      1981      1980      1979      1982      1981      1979      1982
      1984      1983      1987      1984      1983      1991      1984      1983      1995
      1987      1983      1991      1987      1983      1995      1991      1983      1995
      1983      1984      1985      1983      1984      1986      1983      1984      1999
      1985      1984      1986      1985      1984      1999      1986      1984      1999
      1983      1987      1988      1983      1987      1989      1983      1987      1990
      1988      1987      1989      1988      1987      1990      1989      1987      1990
      1983      1991      1992      1983      1991      1993      1983      1991      1994
      1992      1991      1993      1992      1991      1994      1993      1991      1994
      1983      1995      1996      1983      1995      1997      1983      1995      1998
      1996      1995      1997      1996      1995      1998      1997      1995      1998
      1984      1999      2000      1984      1999      2001      1984      1999      2005
      2000      1999      2001      2000      1999      2005      2001      1999      2005
      2003      2002      2004      2003      2002      2005      2003      2002      2006
      2004      2002      2005      2004      2002      2006      2005      2002      2006
      1999      2005      2002      2002      2006      2007      2006      2007      2008
      2006      2007      2009      2006      2007      2010      2008      2007      2009
      2008      2007      2010      2009      2007      2010      2007      2010      2011
      2007      2010      2012      2007      2010      2018      2011      2010      2012
      2011      2010      2018      2012      2010      2018      2010      2012      2013
      2012      2013      2014      2012      2013      2015      2014      2013      2015
      2013      2015      2016      2013      2015      2017      2013      2015      2027
      2016      2015      2017      2016      2015      2027      2017      2015      2027
      2010      2018      2019      2010      2018      2020      2010      2018      2021
      2019      2018      2020      2019      2018      2021      2020      2018      2021
      2018      2021      2022      2021      2022      2023      2021      2022      2024
      2023      2022      2024      2022      2024      2025      2022      2024      2026
      2022      2024      2074      2025      2024      2026      2025      2024      2074
      2026      2024      2074      2015      2027      2028      2015      2027      2029
      2015      2027      2030      2028      2027      2029      2028      2027      2030
      2029      2027      2030      2027      2030      2031      2027      2030      2032
      2027      2030      2033      2031      2030      2032      2031      2030      2033
      2032      2030      2033      2030      2033      2034      2030      2033      2035
      2030      2033      2036      2034      2033      2035      2034      2033      2036
      2035      2033      2036      2033      2036      2037      2033      2036      2038
      2033      2036      2039      2037      2036      2038      2037      2036      2039
      2038      2036      2039      2036      2039      2040      2036      2039      2041
      2036      2039      2042      2040      2039      2041      2040      2039      2042
      2041      2039      2042      2039      2042      2043      2039      2042      2044
      2039      2042      2045      2043      2042      2044      2043      2042      2045
      2044      2042      2045      2042      2045      2046      2042      2045      2047
      2046      2045      2047      2045      2047      2048      2045      2047      2049
      2048      2047      2049      2047      2049      2050      2047      2049      2051
      2047      2049      2052      2050      2049      2051      2050      2049      2052
      2051      2049      2052      2049      2052      2053      2049      2052      2054
      2049      2052      2055      2053      2052      2054      2053      2052      2055
      2054      2052      2055      2052      2055      2056      2052      2055      2057
      2052      2055      2058      2056      2055      2057      2056      2055      2058
      2057      2055      2058      2055      2058      2059      2055      2058      2060
      2055      2058      2061      2059      2058      2060      2059      2058      2061
      2060      2058      2061      2058      2061      2062      2058      2061      2063
      2058      2061      2064      2062      2061      2063      2062      2061      2064
      2063      2061      2064      2061      2064      2065      2061      2064      2066
      2061      2064      2067      2065      2064      2066      2065      2064      2067
      2066      2064      2067      2064      2067      2068      2064      2067      2069
      2064      2067      2070      2068      2067      2069      2068      2067      2070
      2069      2067      2070      2067      2070      2071      2067      2070      2072
      2067      2070      2073      2071      2070      2072      2071      2070      2073
      2072      2070      2073      2024      2074      2075      2024      2074      2076
      2024      2074      2077      2075      2074      2076      2075      2074      2077
      2076      2074      2077      2074      2077      2078      2074      2077      2079
      2074      2077      2080      2078      2077      2079      2078      2077      2080
      2079      2077      2080      2077      2080      2081      2077      2080      2082
      2077      2080      2083      2081      2080      2082      2081      2080      2083
      2082      2080      2083      2080      2083      2084      2080      2083      2085
      2080      2083      2086      2084      2083      2085      2084      2083      2086
      2085      2083      2086      2083      2086      2087      2083      2086      2088
      2083      2086      2089      2087      2086      2088      2087      2086      2089
      2088      2086      2089      2086      2089      2090      2086      2089      2091
      2086      2089      2092      2090      2089      2091      2090      2089      2092
      2091      2089      2092      2089      2092      2093      2089      2092      2094
      2089      2092      2095      2093      2092      2094      2093      2092      2095
      2094      2092      2095      2092      2095      2096      2092      2095      2097
      2092      2095      2098      2096      2095      2097      2096      2095      2098
      2097      2095      2098      2095      2098      2099      2095      2098      2100
      2095      2098      2101      2099      2098      2100      2099      2098      2101
      2100      2098      2101      2098      2101      2102      2098      2101      2103
      2098      2101      2104      2102      2101      2103      2102      2101      2104
      2103      2101      2104      2101      2104      2105      2101      2104      2106
      2101      2104      2107      2105      2104      2106      2105      2104      2107
      2106      2104      2107      2104      2107      2108      2104      2107      2109
      2104      2107      2110      2108      2107      2109      2108      2107      2110
      2109      2107      2110      2107      2110      2111      2107      2110      2112
      2107      2110      2113      2111      2110      2112      2111      2110      2113
      2112      2110      2113      2110      2113      2114      2110      2113      2115
      2110      2113      2116      2114      2113      2115      2114      2113      2116
      2115      2113      2116      2118      2117      2121      2118      2117      2125
      2118      2117      2129      2121      2117      2125      2121      2117      2129
      2125      2117      2129      2117      2118      2119      2117      2118      2120
      2117      2118      2133      2119      2118      2120      2119      2118      2133
      2120      2118      2133      2117      2121      2122      2117      2121      2123
      2117      2121      2124      2122      2121      2123      2122      2121      2124
      2123      2121      2124      2117      2125      2126      2117      2125      2127
      2117      2125      2128      2126      2125      2127      2126      2125      2128
      2127      2125      2128      2117      2129      2130      2117      2129      2131
      2117      2129      2132      2130      2129      2131      2130      2129      2132
      2131      2129      2132      2118      2133      2134      2118      2133      2135
      2118      2133      2139      2134      2133      2135      2134      2133      2139
      2135      2133      2139      2137      2136      2138      2137      2136      2139
      2137      2136      2140      2138      2136      2139      2138      2136      2140
      2139      2136      2140      2133      2139      2136      2136      2140      2141
      2140      2141      2142      2140      2141      2143      2140      2141      2144
      2142      2141      2143      2142      2141      2144      2143      2141      2144
      2141      2144      2145      2141      2144      2146      2141      2144      2152
      2145      2144      2146      2145      2144      2152      2146      2144      2152
      2144      2146      2147      2146      2147      2148      2146      2147      2149
      2148      2147      2149      2147      2149      2150      2147      2149      2151
      2147      2149      2161      2150      2149      2151      2150      2149      2161
      2151      2149      2161      2144      2152      2153      2144      2152      2154
      2144      2152      2155      2153      2152      2154      2153      2152      2155
      2154      2152      2155      2152      2155      2156      2155      2156      2157
      2155      2156      2158      2157      2156      2158      2156      2158      2159
      2156      2158      2160      2156      2158      2208      2159      2158      2160
      2159      2158      2208      2160      2158      2208      2149      2161      2162
      2149      2161      2163      2149      2161      2164      2162      2161      2163
      2162      2161      2164      2163      2161      2164      2161      2164      2165
      2161      2164      2166      2161      2164      2167      2165      2164      2166
      2165      2164      2167      2166      2164      2167      2164      2167      2168
      2164      2167      2169      2164      2167      2170      2168      2167      2169
      2168      2167      2170      2169      2167      2170      2167      2170      2171
      2167      2170      2172      2167      2170      2173      2171      2170      2172
      2171      2170      2173      2172      2170      2173      2170      2173      2174
      2170      2173      2175      2170      2173      2176      2174      2173      2175
      2174      2173      2176      2175      2173      2176      2173      2176      2177
      2173      2176      2178      2173      2176      2179      2177      2176      2178
      2177      2176      2179      2178      2176      2179      2176      2179      2180
      2176      2179      2181      2180      2179      2181      2179      2181      2182
      2179      2181      2183      2182      2181      2183      2181      2183      2184
      2181      2183      2185      2181      2183      2186      2184      2183      2185
      2184      2183      2186      2185      2183      2186      2183      2186      2187
      2183      2186      2188      2183      2186      2189      2187      2186      2188
      2187      2186      2189      2188      2186      2189      2186      2189      2190
      2186      2189      2191      2186      2189      2192      2190      2189      2191
      2190      2189      2192      2191      2189      2192      2189      2192      2193
      2189      2192      2194      2189      2192      2195      2193      2192      2194
      2193      2192      2195      2194      2192      2195      2192      2195      2196
      2192      2195      2197      2192      2195      2198      2196      2195      2197
      2196      2195      2198      2197      2195      2198      2195      2198      2199
      2195      2198      2200      2195      2198      2201      2199      2198      2200
      2199      2198      2201      2200      2198      2201      2198      2201      2202
      2198      2201      2203      2198      2201      2204      2202      2201      2203
      2202      2201      2204      2203      2201      2204      2201      2204      2205
      2201      2204      2206      2201      2204      2207      2205      2204      2206
      2205      2204      2207      2206      2204      2207      2158      2208      2209
      2158      2208      2210      2158      2208      2211      2209      2208      2210
      2209      2208      2211      2210      2208      2211      2208      2211      2212
      2208      2211      2213      2208      2211      2214      2212      2211      2213
      2212      2211      2214      2213      2211      2214      2211      2214      2215
      2211      2214      2216      2211      2214      2217      2215      2214      2216
      2215      2214      2217      2216      2214      2217      2214      2217      2218
      2214      2217      2219      2214      2217      2220      2218      2217      2219
      2218      2217      2220      2219      2217      2220      2217      2220      2221
      2217      2220      2222      2217      2220      2223      2221      2220      2222
      2221      2220      2223      2222      2220      2223      2220      2223      2224
      2220      2223      2225      2220      2223      2226      2224      2223      2225
      2224      2223      2226      2225      2223      2226      2223      2226      2227
      2223      2226      2228      2223      2226      2229      2227      2226      2228
      2227      2226      2229      2228      2226      2229      2226      2229      2230
      2226      2229      2231      2226      2229      2232      2230      2229      2231
      2230      2229      2232      2231      2229      2232      2229      2232      2233
      2229      2232      2234      2229      2232      2235      2233      2232      2234
      2233      2232      2235      2234      2232      2235      2232      2235      2236
      2232      2235      2237      2232      2235      2238      2236      2235      2237
      2236      2235      2238      2237      2235      2238      2235      2238      2239
      2235      2238      2240      2235      2238      2241      2239      2238      2240
      2239      2238      2241      2240      2238      2241      2238      2241      2242
      2238      2241      2243      2238      2241      2244      2242      2241      2243
      2242      2241      2244      2243      2241      2244      2241      2244      2245
      2241      2244      2246      2241      2244      2247      2245      2244      2246
      2245      2244      2247      2246      2244      2247      2244      2247      2248
      2244      2247      2249      2244      2247      2250      2248      2247      2249
      2248      2247      2250      2249      2247      2250      2252      2251      2255
      2252      2251      2259      2252      2251      2263      2255      2251      2259
      2255      2251      2263      2259      2251      2263      2251      2252      2253
      2251      2252      2254      2251      2252      2267      2253      2252      2254
      2253      2252      2267      2254      2252      2267      2251      2255      2256
      2251      2255      2257      2251      2255      2258      2256      2255      2257
      2256      2255      2258      2257      2255      2258      2251      2259      2260
      2251      2259      2261      2251      2259      2262      2260      2259      2261
      2260      2259      2262      2261      2259      2262      2251      2263      2264
      2251      2263      2265      2251      2263      2266      2264      2263      2265
      2264      2263      2266      2265      2263      2266      2252      2267      2268
      2252      2267      2269      2252      2267      2273      2268      2267      2269
      2268      2267      2273      2269      2267      2273      2271      2270      2272
      2271      2270      2273      2271      2270      2274      2272      2270      2273
      2272      2270      2274      2273      2270      2274      2267      2273      2270
      2270      2274      2275      2274      2275      2276      2274      2275      2277
      2274      2275      2278      2276      2275      2277      2276      2275      2278
      2277      2275      2278      2275      2278      2279      2275      2278      2280
      2275      2278      2286      2279      2278      2280      2279      2278      2286
      2280      2278      2286      2278      2280      2281      2280      2281      2282
      2280      2281      2283      2282      2281      2283      2281      2283      2284
      2281      2283      2285      2281      2283      2295      2284      2283      2285
      2284      2283      2295      2285      2283      2295      2278      2286      2287
      2278      2286      2288      2278      2286      2289      2287      2286      2288
      2287      2286      2289      2288      2286      2289      2286      2289      2290
      2289      2290      2291      2289      2290      2292      2291      2290      2292
      2290      2292      2293      2290      2292      2294      2290      2292      2342
      2293      2292      2294      2293      2292      2342      2294      2292      2342
      2283      2295      2296      2283      2295      2297      2283      2295      2298
      2296      2295      2297      2296      2295      2298      2297      2295      2298
      2295      2298      2299      2295      2298      2300      2295      2298      2301
      2299      2298      2300      2299      2298      2301      2300      2298      2301
      2298      2301      2302      2298      2301      2303      2298      2301      2304
      2302      2301      2303      2302      2301      2304      2303      2301      2304
      2301      2304      2305      2301      2304      2306      2301      2304      2307
      2305      2304      2306      2305      2304      2307      2306      2304      2307
      2304      2307      2308      2304      2307      2309      2304      2307      2310
      2308      2307      2309      2308      2307      2310      2309      2307      2310
      2307      2310      2311      2307      2310      2312      2307      2310      2313
      2311      2310      2312      2311      2310      2313      2312      2310      2313
      2310      2313      2314      2310      2313      2315      2314      2313      2315
      2313      2315      2316      2313      2315      2317      2316      2315      2317
      2315      2317      2318      2315      2317      2319      2315      2317      2320
      2318      2317      2319      2318      2317      2320      2319      2317      2320
      2317      2320      2321      2317      2320      2322      2317      2320      2323
      2321      2320      2322      2321      2320      2323      2322      2320      2323
      2320      2323      2324      2320      2323      2325      2320      2323      2326
      2324      2323      2325      2324      2323      2326      2325      2323      2326
      2323      2326      2327      2323      2326      2328      2323      2326      2329
      2327      2326      2328      2327      2326      2329      2328      2326      2329
      2326      2329      2330      2326      2329      2331      2326      2329      2332
      2330      2329      2331      2330      2329      2332      2331      2329      2332
      2329      2332      2333      2329      2332      2334      2329      2332      2335
      2333      2332      2334      2333      2332      2335      2334      2332      2335
      2332      2335      2336      2332      2335      2337      2332      2335      2338
      2336      2335      2337      2336      2335      2338      2337      2335      2338
      2335      2338      2339      2335      2338      2340      2335      2338      2341
      2339      2338      2340      2339      2338      2341      2340      2338      2341
      2292      2342      2343      2292      2342      2344      2292      2342      2345
      2343      2342      2344      2343      2342      2345      2344      2342      2345
      2342      2345      2346      2342      2345      2347      2342      2345      2348
      2346      2345      2347      2346      2345      2348      2347      2345      2348
      2345      2348      2349      2345      2348      2350      2345      2348      2351
      2349      2348      2350      2349      2348      2351      2350      2348      2351
      2348      2351      2352      2348      2351      2353      2348      2351      2354
      2352      2351      2353      2352      2351      2354      2353      2351      2354
      2351      2354      2355      2351      2354      2356      2351      2354      2357
      2355      2354      2356      2355      2354      2357      2356      2354      2357
      2354      2357      2358      2354      2357      2359      2354      2357      2360
      2358      2357      2359      2358      2357      2360      2359      2357      2360
      2357      2360      2361      2357      2360      2362      2357      2360      2363
      2361      2360      2362      2361      2360      2363      2362      2360      2363
      2360      2363      2364      2360      2363      2365      2360      2363      2366
      2364      2363      2365      2364      2363      2366      2365      2363      2366
      2363      2366      2367      2363      2366      2368      2363      2366      2369
      2367      2366      2368      2367      2366      2369      2368      2366      2369
      2366      2369      2370      2366      2369      2371      2366      2369      2372
      2370      2369      2371      2370      2369      2372      2371      2369      2372
      2369      2372      2373      2369      2372      2374      2369      2372      2375
      2373      2372      2374      2373      2372      2375      2374      2372      2375
      2372      2375      2376      2372      2375      2377      2372      2375      2378
      2376      2375      2377      2376      2375      2378      2377      2375      2378
      2375      2378      2379      2375      2378      2380      2375      2378      2381
      2379      2378      2380      2379      2378      2381      2380      2378      2381
      2378      2381      2382      2378      2381      2383      2378      2381      2384
      2382      2381      2383      2382      2381      2384      2383      2381      2384
      2386      2385      2389      2386      2385      2393      2386      2385      2397
      2389      2385      2393      2389      2385      2397      2393      2385      2397
      2385      2386      2387      2385      2386      2388      2385      2386      2401
      2387      2386      2388      2387      2386      2401      2388      2386      2401
      2385      2389      2390      2385      2389      2391      2385      2389      2392
      2390      2389      2391      2390      2389      2392      2391      2389      2392
      2385      2393      2394      2385      2393      2395      2385      2393      2396
      2394      2393      2395      2394      2393      2396      2395      2393      2396
      2385      2397      2398      2385      2397      2399      2385      2397      2400
      2398      2397      2399      2398      2397      2400      2399      2397      2400
      2386      2401      2402      2386      2401      2403      2386      2401      2407
      2402      2401      2403      2402      2401      2407      2403      2401      2407
      2405      2404      2406      2405      2404      2407      2405      2404      2408
      2406      2404      2407      2406      2404      2408      2407      2404      2408
      2401      2407      2404      2404      2408      2409      2408      2409      2410
      2408      2409      2411      2408      2409      2412      2410      2409      2411
      2410      2409      2412      2411      2409      2412      2409      2412      2413
      2409      2412      2414      2409      2412      2420      2413      2412      2414
      2413      2412      2420      2414      2412      2420      2412      2414      2415
      2414      2415      2416      2414      2415      2417      2416      2415      2417
      2415      2417      2418      2415      2417      2419      2415      2417      2429
      2418      2417      2419      2418      2417      2429      2419      2417      2429
      2412      2420      2421      2412      2420      2422      2412      2420      2423
      2421      2420      2422      2421      2420      2423      2422      2420      2423
      2420      2423      2424      2423      2424      2425      2423      2424      2426
      2425      2424      2426      2424      2426      2427      2424      2426      2428
      2424      2426      2476      2427      2426      2428      2427      2426      2476
      2428      2426      2476      2417      2429      2430      2417      2429      2431
      2417      2429      2432      2430      2429      2431      2430      2429      2432
      2431      2429      2432      2429      2432      2433      2429      2432      2434
      2429      2432      2435      2433      2432      2434      2433      2432      2435
      2434      2432      2435      2432      2435      2436      2432      2435      2437
      2432      2435      2438      2436      2435      2437      2436      2435      2438
      2437      2435      2438      2435      2438      2439      2435      2438      2440
      2435      2438      2441      2439      2438      2440      2439      2438      2441
      2440      2438      2441      2438      2441      2442      2438      2441      2443
      2438      2441      2444      2442      2441      2443      2442      2441      2444
      2443      2441      2444      2441      2444      2445      2441      2444      2446
      2441      2444      2447      2445      2444      2446      2445      2444      2447
      2446      2444      2447      2444      2447      2448      2444      2447      2449
      2448      2447      2449      2447      2449      2450      2447      2449      2451
      2450      2449      2451      2449      2451      2452      2449      2451      2453
      2449      2451      2454      2452      2451      2453      2452      2451      2454
      2453      2451      2454      2451      2454      2455      2451      2454      2456
      2451      2454      2457      2455      2454      2456      2455      2454      2457
      2456      2454      2457      2454      2457      2458      2454      2457      2459
      2454      2457      2460      2458      2457      2459      2458      2457      2460
      2459      2457      2460      2457      2460      2461      2457      2460      2462
      2457      2460      2463      2461      2460      2462      2461      2460      2463
      2462      2460      2463      2460      2463      2464      2460      2463      2465
      2460      2463      2466      2464      2463      2465      2464      2463      2466
      2465      2463      2466      2463      2466      2467      2463      2466      2468
      2463      2466      2469      2467      2466      2468      2467      2466      2469
      2468      2466      2469      2466      2469      2470      2466      2469      2471
      2466      2469      2472      2470      2469      2471      2470      2469      2472
      2471      2469      2472      2469      2472      2473      2469      2472      2474
      2469      2472      2475      2473      2472      2474      2473      2472      2475
      2474      2472      2475      2426      2476      2477      2426      2476      2478
      2426      2476      2479      2477      2476      2478      2477      2476      2479
      2478      2476      2479      2476      2479      2480      2476      2479      2481
      2476      2479      2482      2480      2479      2481      2480      2479      2482
      2481      2479      2482      2479      2482      2483      2479      2482      2484
      2479      2482      2485      2483      2482      2484      2483      2482      2485
      2484      2482      2485      2482      2485      2486      2482      2485      2487
      2482      2485      2488      2486      2485      2487      2486      2485      2488
      2487      2485      2488      2485      2488      2489      2485      2488      2490
      2485      2488      2491      2489      2488      2490      2489      2488      2491
      2490      2488      2491      2488      2491      2492      2488      2491      2493
      2488      2491      2494      2492      2491      2493      2492      2491      2494
      2493      2491      2494      2491      2494      2495      2491      2494      2496
      2491      2494      2497      2495      2494      2496      2495      2494      2497
      2496      2494      2497      2494      2497      2498      2494      2497      2499
      2494      2497      2500      2498      2497      2499      2498      2497      2500
      2499      2497      2500      2497      2500      2501      2497      2500      2502
      2497      2500      2503      2501      2500      2502      2501      2500      2503
      2502      2500      2503      2500      2503      2504      2500      2503      2505
      2500      2503      2506      2504      2503      2505      2504      2503      2506
      2505      2503      2506      2503      2506      2507      2503      2506      2508
      2503      2506      2509      2507      2506      2508      2507      2506      2509
      2508      2506      2509      2506      2509      2510      2506      2509      2511
      2506      2509      2512      2510      2509      2511      2510      2509      2512
      2511      2509      2512      2509      2512      2513      2509      2512      2514
      2509      2512      2515      2513      2512      2514      2513      2512      2515
      2514      2512      2515      2512      2515      2516      2512      2515      2517
      2512      2515      2518      2516      2515      2517      2516      2515      2518
      2517      2515      2518      2520      2519      2523      2520      2519      2527
      2520      2519      2531      2523      2519      2527      2523      2519      2531
      2527      2519      2531      2519      2520      2521      2519      2520      2522
      2519      2520      2535      2521      2520      2522      2521      2520      2535
      2522      2520      2535      2519      2523      2524      2519      2523      2525
      2519      2523      2526      2524      2523      2525      2524      2523      2526
      2525      2523      2526      2519      2527      2528      2519      2527      2529
      2519      2527      2530      2528      2527      2529      2528      2527      2530
      2529      2527      2530      2519      2531      2532      2519      2531      2533
      2519      2531      2534      2532      2531      2533      2532      2531      2534
      2533      2531      2534      2520      2535      2536      2520      2535      2537
      2520      2535      2541      2536      2535      2537      2536      2535      2541
      2537      2535      2541      2539      2538      2540      2539      2538      2541
      2539      2538      2542      2540      2538      2541      2540      2538      2542
      2541      2538      2542      2535      2541      2538      2538      2542      2543
      2542      2543      2544      2542      2543      2545      2542      2543      2546
      2544      2543      2545      2544      2543      2546      2545      2543      2546
      2543      2546      2547      2543      2546      2548      2543      2546      2554
      2547      2546      2548      2547      2546      2554      2548      2546      2554
      2546      2548      2549      2548      2549      2550      2548      2549      2551
      2550      2549      2551      2549      2551      2552      2549      2551      2553
      2549      2551      2563      2552      2551      2553      2552      2551      2563
      2553      2551      2563      2546      2554      2555      2546      2554      2556
      2546      2554      2557      2555      2554      2556      2555      2554      2557
      2556      2554      2557      2554      2557      2558      2557      2558      2559
      2557      2558      2560      2559      2558      2560      2558      2560      2561
      2558      2560      2562      2558      2560      2610      2561      2560      2562
      2561      2560      2610      2562      2560      2610      2551      2563      2564
      2551      2563      2565      2551      2563      2566      2564      2563      2565
      2564      2563      2566      2565      2563      2566      2563      2566      2567
      2563      2566      2568      2563      2566      2569      2567      2566      2568
      2567      2566      2569      2568      2566      2569      2566      2569      2570
      2566      2569      2571      2566      2569      2572      2570      2569      2571
      2570      2569      2572      2571      2569      2572      2569      2572      2573
      2569      2572      2574      2569      2572      2575      2573      2572      2574
      2573      2572      2575      2574      2572      2575      2572      2575      2576
      2572      2575      2577      2572      2575      2578      2576      2575      2577
      2576      2575      2578      2577      2575      2578      2575      2578      2579
      2575      2578      2580      2575      2578      2581      2579      2578      2580
      2579      2578      2581      2580      2578      2581      2578      2581      2582
      2578      2581      2583      2582      2581      2583      2581      2583      2584
      2581      2583      2585      2584      2583      2585      2583      2585      2586
      2583      2585      2587      2583      2585      2588      2586      2585      2587
      2586      2585      2588      2587      2585      2588      2585      2588      2589
      2585      2588      2590      2585      2588      2591      2589      2588      2590
      2589      2588      2591      2590      2588      2591      2588      2591      2592
      2588      2591      2593      2588      2591      2594      2592      2591      2593
      2592      2591      2594      2593      2591      2594      2591      2594      2595
      2591      2594      2596      2591      2594      2597      2595      2594      2596
      2595      2594      2597      2596      2594      2597      2594      2597      2598
      2594      2597      2599      2594      2597      2600      2598      2597      2599
      2598      2597      2600      2599      2597      2600      2597      2600      2601
      2597      2600      2602      2597      2600      2603      2601      2600      2602
      2601      2600      2603      2602      2600      2603      2600      2603      2604
      2600      2603      2605      2600      2603      2606      2604      2603      2605
      2604      2603      2606      2605      2603      2606      2603      2606      2607
      2603      2606      2608      2603      2606      2609      2607      2606      2608
      2607      2606      2609      2608      2606      2609      2560      2610      2611
      2560      2610      2612      2560      2610      2613      2611      2610      2612
      2611      2610      2613      2612      2610      2613      2610      2613      2614
      2610      2613      2615      2610      2613      2616      2614      2613      2615
      2614      2613      2616      2615      2613      2616      2613      2616      2617
      2613      2616      2618      2613      2616      2619      2617      2616      2618
      2617      2616      2619      2618      2616      2619      2616      2619      2620
      2616      2619      2621      2616      2619      2622      2620      2619      2621
      2620      2619      2622      2621      2619      2622      2619      2622      2623
      2619      2622      2624      2619      2622      2625      2623      2622      2624
      2623      2622      2625      2624      2622      2625      2622      2625      2626
      2622      2625      2627      2622      2625      2628      2626      2625      2627
      2626      2625      2628      2627      2625      2628      2625      2628      2629
      2625      2628      2630      2625      2628      2631      2629      2628      2630
      2629      2628      2631      2630      2628      2631      2628      2631      2632
      2628      2631      2633      2628      2631      2634      2632      2631      2633
      2632      2631      2634      2633      2631      2634      2631      2634      2635
      2631      2634      2636      2631      2634      2637      2635      2634      2636
      2635      2634      2637      2636      2634      2637      2634      2637      2638
      2634      2637      2639      2634      2637      2640      2638      2637      2639
      2638      2637      2640      2639      2637      2640      2637      2640      2641
      2637      2640      2642      2637      2640      2643      2641      2640      2642
      2641      2640      2643      2642      2640      2643      2640      2643      2644
      2640      2643      2645      2640      2643      2646      2644      2643      2645
      2644      2643      2646      2645      2643      2646      2643      2646      2647
      2643      2646      2648      2643      2646      2649      2647      2646      2648
      2647      2646      2649      2648      2646      2649      2646      2649      2650
      2646      2649      2651      2646      2649      2652      2650      2649      2651
      2650      2649      2652      2651      2649      2652      2654      2653      2657
      2654      2653      2661      2654      2653      2665      2657      2653      2661
      2657      2653      2665      2661      2653      2665      2653      2654      2655
      2653      2654      2656      2653      2654      2669      2655      2654      2656
      2655      2654      2669      2656      2654      2669      2653      2657      2658
      2653      2657      2659      2653      2657      2660      2658      2657      2659
      2658      2657      2660      2659      2657      2660      2653      2661      2662
      2653      2661      2663      2653      2661      2664      2662      2661      2663
      2662      2661      2664      2663      2661      2664      2653      2665      2666
      2653      2665      2667      2653      2665      2668      2666      2665      2667
      2666      2665      2668      2667      2665      2668      2654      2669      2670
      2654      2669      2671      2654      2669      2675      2670      2669      2671
      2670      2669      2675      2671      2669      2675      2673      2672      2674
      2673      2672      2675      2673      2672      2676      2674      2672      2675
      2674      2672      2676      2675      2672      2676      2669      2675      2672
      2672      2676      2677      2676      2677      2678      2676      2677      2679
      2676      2677      2680      2678      2677      2679      2678      2677      2680
      2679      2677      2680      2677      2680      2681      2677      2680      2682
      2677      2680      2688      2681      2680      2682      2681      2680      2688
      2682      2680      2688      2680      2682      2683      2682      2683      2684
      2682      2683      2685      2684      2683      2685      2683      2685      2686
      2683      2685      2687      2683      2685      2697      2686      2685      2687
      2686      2685      2697      2687      2685      2697      2680      2688      2689
      2680      2688      2690      2680      2688      2691      2689      2688      2690
      2689      2688      2691      2690      2688      2691      2688      2691      2692
      2691      2692      2693      2691      2692      2694      2693      2692      2694
      2692      2694      2695      2692      2694      2696      2692      2694      2744
      2695      2694      2696      2695      2694      2744      2696      2694      2744
      2685      2697      2698      2685      2697      2699      2685      2697      2700
      2698      2697      2699      2698      2697      2700      2699      2697      2700
      2697      2700      2701      2697      2700      2702      2697      2700      2703
      2701      2700      2702      2701      2700      2703      2702      2700      2703
      2700      2703      2704      2700      2703      2705      2700      2703      2706
      2704      2703      2705      2704      2703      2706      2705      2703      2706
      2703      2706      2707      2703      2706      2708      2703      2706      2709
      2707      2706      2708      2707      2706      2709      2708      2706      2709
      2706      2709      2710      2706      2709      2711      2706      2709      2712
      2710      2709      2711      2710      2709      2712      2711      2709      2712
      2709      2712      2713      2709      2712      2714      2709      2712      2715
      2713      2712      2714      2713      2712      2715      2714      2712      2715
      2712      2715      2716      2712      2715      2717      2716      2715      2717
      2715      2717      2718      2715      2717      2719      2718      2717      2719
      2717      2719      2720      2717      2719      2721      2717      2719      2722
      2720      2719      2721      2720      2719      2722      2721      2719      2722
      2719      2722      2723      2719      2722      2724      2719      2722      2725
      2723      2722      2724      2723      2722      2725      2724      2722      2725
      2722      2725      2726      2722      2725      2727      2722      2725      2728
      2726      2725      2727      2726      2725      2728      2727      2725      2728
      2725      2728      2729      2725      2728      2730      2725      2728      2731
      2729      2728      2730      2729      2728      2731      2730      2728      2731
      2728      2731      2732      2728      2731      2733      2728      2731      2734
      2732      2731      2733      2732      2731      2734      2733      2731      2734
      2731      2734      2735      2731      2734      2736      2731      2734      2737
      2735      2734      2736      2735      2734      2737      2736      2734      2737
      2734      2737      2738      2734      2737      2739      2734      2737      2740
      2738      2737      2739      2738      2737      2740      2739      2737      2740
      2737      2740      2741      2737      2740      2742      2737      2740      2743
      2741      2740      2742      2741      2740      2743      2742      2740      2743
      2694      2744      2745      2694      2744      2746      2694      2744      2747
      2745      2744      2746      2745      2744      2747      2746      2744      2747
      2744      2747      2748      2744      2747      2749      2744      2747      2750
      2748      2747      2749      2748      2747      2750      2749      2747      2750
      2747      2750      2751      2747      2750      2752      2747      2750      2753
      2751      2750      2752      2751      2750      2753      2752      2750      2753
      2750      2753      2754      2750      2753      2755      2750      2753      2756
      2754      2753      2755      2754      2753      2756      2755      2753      2756
      2753      2756      2757      2753      2756      2758      2753      2756      2759
      2757      2756      2758      2757      2756      2759      2758      2756      2759
      2756      2759      2760      2756      2759      2761      2756      2759      2762
      2760      2759      2761      2760      2759      2762      2761      2759      2762
      2759      2762      2763      2759      2762      2764      2759      2762      2765
      2763      2762      2764      2763      2762      2765      2764      2762      2765
      2762      2765      2766      2762      2765      2767      2762      2765      2768
      2766      2765      2767      2766      2765      2768      2767      2765      2768
      2765      2768      2769      2765      2768      2770      2765      2768      2771
      2769      2768      2770      2769      2768      2771      2770      2768      2771
      2768      2771      2772      2768      2771      2773      2768      2771      2774
      2772      2771      2773      2772      2771      2774      2773      2771      2774
      2771      2774      2775      2771      2774      2776      2771      2774      2777
      2775      2774      2776      2775      2774      2777      2776      2774      2777
      2774      2777      2778      2774      2777      2779      2774      2777      2780
      2778      2777      2779      2778      2777      2780      2779      2777      2780
      2777      2780      2781      2777      2780      2782      2777      2780      2783
      2781      2780      2782      2781      2780      2783      2782      2780      2783
      2780      2783      2784      2780      2783      2785      2780      2783      2786
      2784      2783      2785      2784      2783      2786      2785      2783      2786
      2788      2787      2791      2788      2787      2795      2788      2787      2799
      2791      2787      2795      2791      2787      2799      2795      2787      2799
      2787      2788      2789      2787      2788      2790      2787      2788      2803
      2789      2788      2790      2789      2788      2803      2790      2788      2803
      2787      2791      2792      2787      2791      2793      2787      2791      2794
      2792      2791      2793      2792      2791      2794      2793      2791      2794
      2787      2795      2796      2787      2795      2797      2787      2795      2798
      2796      2795      2797      2796      2795      2798      2797      2795      2798
      2787      2799      2800      2787      2799      2801      2787      2799      2802
      2800      2799      2801      2800      2799      2802      2801      2799      2802
      2788      2803      2804      2788      2803      2805      2788      2803      2809
      2804      2803      2805      2804      2803      2809      2805      2803      2809
      2807      2806      2808      2807      2806      2809      2807      2806      2810
      2808      2806      2809      2808      2806      2810      2809      2806      2810
      2803      2809      2806      2806      2810      2811      2810      2811      2812
      2810      2811      2813      2810      2811      2814      2812      2811      2813
      2812      2811      2814      2813      2811      2814      2811      2814      2815
      2811      2814      2816      2811      2814      2822      2815      2814      2816
      2815      2814      2822      2816      2814      2822      2814      2816      2817
      2816      2817      2818      2816      2817      2819      2818      2817      2819
      2817      2819      2820      2817      2819      2821      2817      2819      2831
      2820      2819      2821      2820      2819      2831      2821      2819      2831
      2814      2822      2823      2814      2822      2824      2814      2822      2825
      2823      2822      2824      2823      2822      2825      2824      2822      2825
      2822      2825      2826      2825      2826      2827      2825      2826      2828
      2827      2826      2828      2826      2828      2829      2826      2828      2830
      2826      2828      2878      2829      2828      2830      2829      2828      2878
      2830      2828      2878      2819      2831      2832      2819      2831      2833
      2819      2831      2834      2832      2831      2833      2832      2831      2834
      2833      2831      2834      2831      2834      2835      2831      2834      2836
      2831      2834      2837      2835      2834      2836      2835      2834      2837
      2836      2834      2837      2834      2837      2838      2834      2837      2839
      2834      2837      2840      2838      2837      2839      2838      2837      2840
      2839      2837      2840      2837      2840      2841      2837      2840      2842
      2837      2840      2843      2841      2840      2842      2841      2840      2843
      2842      2840      2843      2840      2843      2844      2840      2843      2845
      2840      2843      2846      2844      2843      2845      2844      2843      2846
      2845      2843      2846      2843      2846      2847      2843      2846      2848
      2843      2846      2849      2847      2846      2848      2847      2846      2849
      2848      2846      2849      2846      2849      2850      2846      2849      2851
      2850      2849      2851      2849      2851      2852      2849      2851      2853
      2852      2851      2853      2851      2853      2854      2851      2853      2855
      2851      2853      2856      2854      2853      2855      2854      2853      2856
      2855      2853      2856      2853      2856      2857      2853      2856      2858
      2853      2856      2859      2857      2856      2858      2857      2856      2859
      2858      2856      2859      2856      2859      2860      2856      2859      2861
      2856      2859      2862      2860      2859      2861      2860      2859      2862
      2861      2859      2862      2859      2862      2863      2859      2862      2864
      2859      2862      2865      2863      2862      2864      2863      2862      2865
      2864      2862      2865      2862      2865      2866      2862      2865      2867
      2862      2865      2868      2866      2865      2867      2866      2865      2868
      2867      2865      2868      2865      2868      2869      2865      2868      2870
      2865      2868      2871      2869      2868      2870      2869      2868      2871
      2870      2868      2871      2868      2871      2872      2868      2871      2873
      2868      2871      2874      2872      2871      2873      2872      2871      2874
      2873      2871      2874      2871      2874      2875      2871      2874      2876
      2871      2874      2877      2875      2874      2876      2875      2874      2877
      2876      2874      2877      2828      2878      2879      2828      2878      2880
      2828      2878      2881      2879      2878      2880      2879      2878      2881
      2880      2878      2881      2878      2881      2882      2878      2881      2883
      2878      2881      2884      2882      2881      2883      2882      2881      2884
      2883      2881      2884      2881      2884      2885      2881      2884      2886
      2881      2884      2887      2885      2884      2886      2885      2884      2887
      2886      2884      2887      2884      2887      2888      2884      2887      2889
      2884      2887      2890      2888      2887      2889      2888      2887      2890
      2889      2887      2890      2887      2890      2891      2887      2890      2892
      2887      2890      2893      2891      2890      2892      2891      2890      2893
      2892      2890      2893      2890      2893      2894      2890      2893      2895
      2890      2893      2896      2894      2893      2895      2894      2893      2896
      2895      2893      2896      2893      2896      2897      2893      2896      2898
      2893      2896      2899      2897      2896      2898      2897      2896      2899
      2898      2896      2899      2896      2899      2900      2896      2899      2901
      2896      2899      2902      2900      2899      2901      2900      2899      2902
      2901      2899      2902      2899      2902      2903      2899      2902      2904
      2899      2902      2905      2903      2902      2904      2903      2902      2905
      2904      2902      2905      2902      2905      2906      2902      2905      2907
      2902      2905      2908      2906      2905      2907      2906      2905      2908
      2907      2905      2908      2905      2908      2909      2905      2908      2910
      2905      2908      2911      2909      2908      2910      2909      2908      2911
      2910      2908      2911      2908      2911      2912      2908      2911      2913
      2908      2911      2914      2912      2911      2913      2912      2911      2914
      2913      2911      2914      2911      2914      2915      2911      2914      2916
      2911      2914      2917      2915      2914      2916      2915      2914      2917
      2916      2914      2917      2914      2917      2918      2914      2917      2919
      2914      2917      2920      2918      2917      2919      2918      2917      2920
      2919      2917      2920      2922      2921      2925      2922      2921      2929
      2922      2921      2933      2925      2921      2929      2925      2921      2933
      2929      2921      2933      2921      2922      2923      2921      2922      2924
      2921      2922      2937      2923      2922      2924      2923      2922      2937
      2924      2922      2937      2921      2925      2926      2921      2925      2927
      2921      2925      2928      2926      2925      2927      2926      2925      2928
      2927      2925      2928      2921      2929      2930      2921      2929      2931
      2921      2929      2932      2930      2929      2931      2930      2929      2932
      2931      2929      2932      2921      2933      2934      2921      2933      2935
      2921      2933      2936      2934      2933      2935      2934      2933      2936
      2935      2933      2936      2922      2937      2938      2922      2937      2939
      2922      2937      2943      2938      2937      2939      2938      2937      2943
      2939      2937      2943      2941      2940      2942      2941      2940      2943
      2941      2940      2944      2942      2940      2943      2942      2940      2944
      2943      2940      2944      2937      2943      2940      2940      2944      2945
      2944      2945      2946      2944      2945      2947      2944      2945      2948
      2946      2945      2947      2946      2945      2948      2947      2945      2948
      2945      2948      2949      2945      2948      2950      2945      2948      2956
      2949      2948      2950      2949      2948      2956      2950      2948      2956
      2948      2950      2951      2950      2951      2952      2950      2951      2953
      2952      2951      2953      2951      2953      2954      2951      2953      2955
      2951      2953      2965      2954      2953      2955      2954      2953      2965
      2955      2953      2965      2948      2956      2957      2948      2956      2958
      2948      2956      2959      2957      2956      2958      2957      2956      2959
      2958      2956      2959      2956      2959      2960      2959      2960      2961
      2959      2960      2962      2961      2960      2962      2960      2962      2963
      2960      2962      2964      2960      2962      3012      2963      2962      2964
      2963      2962      3012      2964      2962      3012      2953      2965      2966
      2953      2965      2967      2953      2965      2968      2966      2965      2967
      2966      2965      2968      2967      2965      2968      2965      2968      2969
      2965      2968      2970      2965      2968      2971      2969      2968      2970
      2969      2968      2971      2970      2968      2971      2968      2971      2972
      2968      2971      2973      2968      2971      2974      2972      2971      2973
      2972      2971      2974      2973      2971      2974      2971      2974      2975
      2971      2974      2976      2971      2974      2977      2975      2974      2976
      2975      2974      2977      2976      2974      2977      2974      2977      2978
      2974      2977      2979      2974      2977      2980      2978      2977      2979
      2978      2977      2980      2979      2977      2980      2977      2980      2981
      2977      2980      2982      2977      2980      2983      2981      2980      2982
      2981      2980      2983      2982      2980      2983      2980      2983      2984
      2980      2983      2985      2984      2983      2985      2983      2985      2986
      2983      2985      2987      2986      2985      2987      2985      2987      2988
      2985      2987      2989      2985      2987      2990      2988      2987      2989
      2988      2987      2990      2989      2987      2990      2987      2990      2991
      2987      2990      2992      2987      2990      2993      2991      2990      2992
      2991      2990      2993      2992      2990      2993      2990      2993      2994
      2990      2993      2995      2990      2993      2996      2994      2993      2995
      2994      2993      2996      2995      2993      2996      2993      2996      2997
      2993      2996      2998      2993      2996      2999      2997      2996      2998
      2997      2996      2999      2998      2996      2999      2996      2999      3000
      2996      2999      3001      2996      2999      3002      3000      2999      3001
      3000      2999      3002      3001      2999      3002      2999      3002      3003
      2999      3002      3004      2999      3002      3005      3003      3002      3004
      3003      3002      3005      3004      3002      3005      3002      3005      3006
      3002      3005      3007      3002      3005      3008      3006      3005      3007
      3006      3005      3008      3007      3005      3008      3005      3008      3009
      3005      3008      3010      3005      3008      3011      3009      3008      3010
      3009      3008      3011      3010      3008      3011      2962      3012      3013
      2962      3012      3014      2962      3012      3015      3013      3012      3014
      3013      3012      3015      3014      3012      3015      3012      3015      3016
      3012      3015      3017      3012      3015      3018      3016      3015      3017
      3016      3015      3018      3017      3015      3018      3015      3018      3019
      3015      3018      3020      3015      3018      3021      3019      3018      3020
      3019      3018      3021      3020      3018      3021      3018      3021      3022
      3018      3021      3023      3018      3021      3024      3022      3021      3023
      3022      3021      3024      3023      3021      3024      3021      3024      3025
      3021      3024      3026      3021      3024      3027      3025      3024      3026
      3025      3024      3027      3026      3024      3027      3024      3027      3028
      3024      3027      3029      3024      3027      3030      3028      3027      3029
      3028      3027      3030      3029      3027      3030      3027      3030      3031
      3027      3030      3032      3027      3030      3033      3031      3030      3032
      3031      3030      3033      3032      3030      3033      3030      3033      3034
      3030      3033      3035      3030      3033      3036      3034      3033      3035
      3034      3033      3036      3035      3033      3036      3033      3036      3037
      3033      3036      3038      3033      3036      3039      3037      3036      3038
      3037      3036      3039      3038      3036      3039      3036      3039      3040
      3036      3039      3041      3036      3039      3042      3040      3039      3041
      3040      3039      3042      3041      3039      3042      3039      3042      3043
      3039      3042      3044      3039      3042      3045      3043      3042      3044
      3043      3042      3045      3044      3042      3045      3042      3045      3046
      3042      3045      3047      3042      3045      3048      3046      3045      3047
      3046      3045      3048      3047      3045      3048      3045      3048      3049
      3045      3048      3050      3045      3048      3051      3049      3048      3050
      3049      3048      3051      3050      3048      3051      3048      3051      3052
      3048      3051      3053      3048      3051      3054      3052      3051      3053
      3052      3051      3054      3053      3051      3054      3056      3055      3057
      3056      3055      3058      3056      3055      3059      3057      3055      3058
      3057      3055      3059      3058      3055      3059      3055      3059      3060
      3055      3059      3061      3055      3059      3064      3060      3059      3061
      3060      3059      3064      3061      3059      3064      3059      3061      3062
      3059      3061      3063      3062      3061      3063      3059      3064      3065
      3059      3064      3066      3059      3064      3070      3065      3064      3066
      3065      3064      3070      3066      3064      3070      3068      3067      3069
      3068      3067      3070      3068      3067      3071      3069      3067      3070
      3069      3067      3071      3070      3067      3071      3064      3070      3067
      3067      3071      3072      3071      3072      3073      3071      3072      3074
      3071      3072      3075      3073      3072      3074      3073      3072      3075
      3074      3072      3075      3072      3075      3076      3072      3075      3077
      3072      3075      3083      3076      3075      3077      3076      3075      3083
      3077      3075      3083      3075      3077      3078      3077      3078      3079
      3077      3078      3080      3079      3078      3080      3078      3080      3081
      3078      3080      3082      3078      3080      3092      3081      3080      3082
      3081      3080      3092      3082      3080      3092      3075      3083      3084
      3075      3083      3085      3075      3083      3086      3084      3083      3085
      3084      3083      3086      3085      3083      3086      3083      3086      3087
      3086      3087      3088      3086      3087      3089      3088      3087      3089
      3087      3089      3090      3087      3089      3091      3087      3089      3139
      3090      3089      3091      3090      3089      3139      3091      3089      3139
      3080      3092      3093      3080      3092      3094      3080      3092      3095
      3093      3092      3094      3093      3092      3095      3094      3092      3095
      3092      3095      3096      3092      3095      3097      3092      3095      3098
      3096      3095      3097      3096      3095      3098      3097      3095      3098
      3095      3098      3099      3095      3098      3100      3095      3098      3101
      3099      3098      3100      3099      3098      3101      3100      3098      3101
      3098      3101      3102      3098      3101      3103      3098      3101      3104
      3102      3101      3103      3102      3101      3104      3103      3101      3104
      3101      3104      3105      3101      3104      3106      3101      3104      3107
      3105      3104      3106      3105      3104      3107      3106      3104      3107
      3104      3107      3108      3104      3107      3109      3104      3107      3110
      3108      3107      3109      3108      3107      3110      3109      3107      3110
      3107      3110      3111      3107      3110      3112      3111      3110      3112
      3110      3112      3113      3110      3112      3114      3113      3112      3114
      3112      3114      3115      3112      3114      3116      3112      3114      3117
      3115      3114      3116      3115      3114      3117      3116      3114      3117
      3114      3117      3118      3114      3117      3119      3114      3117      3120
      3118      3117      3119      3118      3117      3120      3119      3117      3120
      3117      3120      3121      3117      3120      3122      3117      3120      3123
      3121      3120      3122      3121      3120      3123      3122      3120      3123
      3120      3123      3124      3120      3123      3125      3120      3123      3126
      3124      3123      3125      3124      3123      3126      3125      3123      3126
      3123      3126      3127      3123      3126      3128      3123      3126      3129
      3127      3126      3128      3127      3126      3129      3128      3126      3129
      3126      3129      3130      3126      3129      3131      3126      3129      3132
      3130      3129      3131      3130      3129      3132      3131      3129      3132
      3129      3132      3133      3129      3132      3134      3129      3132      3135
      3133      3132      3134      3133      3132      3135      3134      3132      3135
      3132      3135      3136      3132      3135      3137      3132      3135      3138
      3136      3135      3137      3136      3135      3138      3137      3135      3138
      3089      3139      3140      3089      3139      3141      3089      3139      3142
      3140      3139      3141      3140      3139      3142      3141      3139      3142
      3139      3142      3143      3139      3142      3144      3139      3142      3145
      3143      3142      3144      3143      3142      3145      3144      3142      3145
      3142      3145      3146      3142      3145      3147      3142      3145      3148
      3146      3145      3147      3146      3145      3148      3147      3145      3148
      3145      3148      3149      3145      3148      3150      3145      3148      3151
      3149      3148      3150      3149      3148      3151      3150      3148      3151
      3148      3151      3152      3148      3151      3153      3148      3151      3154
      3152      3151      3153      3152      3151      3154      3153      3151      3154
      3151      3154      3155      3151      3154      3156      3151      3154      3157
      3155      3154      3156      3155      3154      3157      3156      3154      3157
      3154      3157      3158      3154      3157      3159      3154      3157      3160
      3158      3157      3159      3158      3157      3160      3159      3157      3160
      3157      3160      3161      3157      3160      3162      3157      3160      3163
      3161      3160      3162      3161      3160      3163      3162      3160      3163
      3160      3163      3164      3160      3163      3165      3160      3163      3166
      3164      3163      3165      3164      3163      3166      3165      3163      3166
      3163      3166      3167      3163      3166      3168      3163      3166      3169
      3167      3166      3168      3167      3166      3169      3168      3166      3169
      3166      3169      3170      3166      3169      3171      3166      3169      3172
      3170      3169      3171      3170      3169      3172      3171      3169      3172
      3169      3172      3173      3169      3172      3174      3169      3172      3175
      3173      3172      3174      3173      3172      3175      3174      3172      3175
      3172      3175      3176      3172      3175      3177      3172      3175      3178
      3176      3175      3177      3176      3175      3178      3177      3175      3178
      3175      3178      3179      3175      3178      3180      3175      3178      3181
      3179      3178      3180      3179      3178      3181      3180      3178      3181
      3183      3182      3184      3183      3182      3185      3183      3182      3186
      3184      3182      3185      3184      3182      3186      3185      3182      3186
      3182      3186      3187      3182      3186      3188      3182      3186      3191
      3187      3186      3188      3187      3186      3191      3188      3186      3191
      3186      3188      3189      3186      3188      3190      3189      3188      3190
      3186      3191      3192      3186      3191      3193      3186      3191      3197
      3192      3191      3193      3192      3191      3197      3193      3191      3197
      3195      3194      3196      3195      3194      3197      3195      3194      3198
      3196      3194      3197      3196      3194      3198      3197      3194      3198
      3191      3197      3194      3194      3198      3199      3198      3199      3200
      3198      3199      3201      3198      3199      3202      3200      3199      3201
      3200      3199      3202      3201      3199      3202      3199      3202      3203
      3199      3202      3204      3199      3202      3210      3203      3202      3204
      3203      3202      3210      3204      3202      3210      3202      3204      3205
      3204      3205      3206      3204      3205      3207      3206      3205      3207
      3205      3207      3208      3205      3207      3209      3205      3207      3219
      3208      3207      3209      3208      3207      3219      3209      3207      3219
      3202      3210      3211      3202      3210      3212      3202      3210      3213
      3211      3210      3212      3211      3210      3213      3212      3210      3213
      3210      3213      3214      3213      3214      3215      3213      3214      3216
      3215      3214      3216      3214      3216      3217      3214      3216      3218
      3214      3216      3266      3217      3216      3218      3217      3216      3266
      3218      3216      3266      3207      3219      3220      3207      3219      3221
      3207      3219      3222      3220      3219      3221      3220      3219      3222
      3221      3219      3222      3219      3222      3223      3219      3222      3224
      3219      3222      3225      3223      3222      3224      3223      3222      3225
      3224      3222      3225      3222      3225      3226      3222      3225      3227
      3222      3225      3228      3226      3225      3227      3226      3225      3228
      3227      3225      3228      3225      3228      3229      3225      3228      3230
      3225      3228      3231      3229      3228      3230      3229      3228      3231
      3230      3228      3231      3228      3231      3232      3228      3231      3233
      3228      3231      3234      3232      3231      3233      3232      3231      3234
      3233      3231      3234      3231      3234      3235      3231      3234      3236
      3231      3234      3237      3235      3234      3236      3235      3234      3237
      3236      3234      3237      3234      3237      3238      3234      3237      3239
      3238      3237      3239      3237      3239      3240      3237      3239      3241
      3240      3239      3241      3239      3241      3242      3239      3241      3243
      3239      3241      3244      3242      3241      3243      3242      3241      3244
      3243      3241      3244      3241      3244      3245      3241      3244      3246
      3241      3244      3247      3245      3244      3246      3245      3244      3247
      3246      3244      3247      3244      3247      3248      3244      3247      3249
      3244      3247      3250      3248      3247      3249      3248      3247      3250
      3249      3247      3250      3247      3250      3251      3247      3250      3252
      3247      3250      3253      3251      3250      3252      3251      3250      3253
      3252      3250      3253      3250      3253      3254      3250      3253      3255
      3250      3253      3256      3254      3253      3255      3254      3253      3256
      3255      3253      3256      3253      3256      3257      3253      3256      3258
      3253      3256      3259      3257      3256      3258      3257      3256      3259
      3258      3256      3259      3256      3259      3260      3256      3259      3261
      3256      3259      3262      3260      3259      3261      3260      3259      3262
      3261      3259      3262      3259      3262      3263      3259      3262      3264
      3259      3262      3265      3263      3262      3264      3263      3262      3265
      3264      3262      3265      3216      3266      3267      3216      3266      3268
      3216      3266      3269      3267      3266      3268      3267      3266      3269
      3268      3266      3269      3266      3269      3270      3266      3269      3271
      3266      3269      3272      3270      3269      3271      3270      3269      3272
      3271      3269      3272      3269      3272      3273      3269      3272      3274
      3269      3272      3275      3273      3272      3274      3273      3272      3275
      3274      3272      3275      3272      3275      3276      3272      3275      3277
      3272      3275      3278      3276      3275      3277      3276      3275      3278
      3277      3275      3278      3275      3278      3279      3275      3278      3280
      3275      3278      3281      3279      3278      3280      3279      3278      3281
      3280      3278      3281      3278      3281      3282      3278      3281      3283
      3278      3281      3284      3282      3281      3283      3282      3281      3284
      3283      3281      3284      3281      3284      3285      3281      3284      3286
      3281      3284      3287      3285      3284      3286      3285      3284      3287
      3286      3284      3287      3284      3287      3288      3284      3287      3289
      3284      3287      3290      3288      3287      3289      3288      3287      3290
      3289      3287      3290      3287      3290      3291      3287      3290      3292
      3287      3290      3293      3291      3290      3292      3291      3290      3293
      3292      3290      3293      3290      3293      3294      3290      3293      3295
      3290      3293      3296      3294      3293      3295      3294      3293      3296
      3295      3293      3296      3293      3296      3297      3293      3296      3298
      3293      3296      3299      3297      3296      3298      3297      3296      3299
      3298      3296      3299      3296      3299      3300      3296      3299      3301
      3296      3299      3302      3300      3299      3301      3300      3299      3302
      3301      3299      3302      3299      3302      3303      3299      3302      3304
      3299      3302      3305      3303      3302      3304      3303      3302      3305
      3304      3302      3305      3302      3305      3306      3302      3305      3307
      3302      3305      3308      3306      3305      3307      3306      3305      3308
      3307      3305      3308      3310      3309      3313      3310      3309      3317
      3310      3309      3321      3313      3309      3317      3313      3309      3321
      3317      3309      3321      3309      3310      3311      3309      3310      3312
      3309      3310      3325      3311      3310      3312      3311      3310      3325
      3312      3310      3325      3309      3313      3314      3309      3313      3315
      3309      3313      3316      3314      3313      3315      3314      3313      3316
      3315      3313      3316      3309      3317      3318      3309      3317      3319
      3309      3317      3320      3318      3317      3319      3318      3317      3320
      3319      3317      3320      3309      3321      3322      3309      3321      3323
      3309      3321      3324      3322      3321      3323      3322      3321      3324
      3323      3321      3324      3310      3325      3326      3310      3325      3327
      3310      3325      3331      3326      3325      3327      3326      3325      3331
      3327      3325      3331      3329      3328      3330      3329      3328      3331
      3329      3328      3332      3330      3328      3331      3330      3328      3332
      3331      3328      3332      3325      3331      3328      3328      3332      3333
      3332      3333      3334      3332      3333      3335      3332      3333      3336
      3334      3333      3335      3334      3333      3336      3335      3333      3336
      3333      3336      3337      3333      3336      3338      3333      3336      3344
      3337      3336      3338      3337      3336      3344      3338      3336      3344
      3336      3338      3339      3338      3339      3340      3338      3339      3341
      3340      3339      3341      3339      3341      3342      3339      3341      3343
      3339      3341      3353      3342      3341      3343      3342      3341      3353
      3343      3341      3353      3336      3344      3345      3336      3344      3346
      3336      3344      3347      3345      3344      3346      3345      3344      3347
      3346      3344      3347      3344      3347      3348      3347      3348      3349
      3347      3348      3350      3349      3348      3350      3348      3350      3351
      3348      3350      3352      3348      3350      3400      3351      3350      3352
      3351      3350      3400      3352      3350      3400      3341      3353      3354
      3341      3353      3355      3341      3353      3356      3354      3353      3355
      3354      3353      3356      3355      3353      3356      3353      3356      3357
      3353      3356      3358      3353      3356      3359      3357      3356      3358
      3357      3356      3359      3358      3356      3359      3356      3359      3360
      3356      3359      3361      3356      3359      3362      3360      3359      3361
      3360      3359      3362      3361      3359      3362      3359      3362      3363
      3359      3362      3364      3359      3362      3365      3363      3362      3364
      3363      3362      3365      3364      3362      3365      3362      3365      3366
      3362      3365      3367      3362      3365      3368      3366      3365      3367
      3366      3365      3368      3367      3365      3368      3365      3368      3369
      3365      3368      3370      3365      3368      3371      3369      3368      3370
      3369      3368      3371      3370      3368      3371      3368      3371      3372
      3368      3371      3373      3372      3371      3373      3371      3373      3374
      3371      3373      3375      3374      3373      3375      3373      3375      3376
      3373      3375      3377      3373      3375      3378      3376      3375      3377
      3376      3375      3378      3377      3375      3378      3375      3378      3379
      3375      3378      3380      3375      3378      3381      3379      3378      3380
      3379      3378      3381      3380      3378      3381      3378      3381      3382
      3378      3381      3383      3378      3381      3384      3382      3381      3383
      3382      3381      3384      3383      3381      3384      3381      3384      3385
      3381      3384      3386      3381      3384      3387      3385      3384      3386
      3385      3384      3387      3386      3384      3387      3384      3387      3388
      3384      3387      3389      3384      3387      3390      3388      3387      3389
      3388      3387      3390      3389      3387      3390      3387      3390      3391
      3387      3390      3392      3387      3390      3393      3391      3390      3392
      3391      3390      3393      3392      3390      3393      3390      3393      3394
      3390      3393      3395      3390      3393      3396      3394      3393      3395
      3394      3393      3396      3395      3393      3396      3393      3396      3397
      3393      3396      3398      3393      3396      3399      3397      3396      3398
      3397      3396      3399      3398      3396      3399      3350      3400      3401
      3350      3400      3402      3350      3400      3403      3401      3400      3402
      3401      3400      3403      3402      3400      3403      3400      3403      3404
      3400      3403      3405      3400      3403      3406      3404      3403      3405
      3404      3403      3406      3405      3403      3406      3403      3406      3407
      3403      3406      3408      3403      3406      3409      3407      3406      3408
      3407      3406      3409      3408      3406      3409      3406      3409      3410
      3406      3409      3411      3406      3409      3412      3410      3409      3411
      3410      3409      3412      3411      3409      3412      3409      3412      3413
      3409      3412      3414      3409      3412      3415      3413      3412      3414
      3413      3412      3415      3414      3412      3415      3412      3415      3416
      3412      3415      3417      3412      3415      3418      3416      3415      3417
      3416      3415      3418      3417      3415      3418      3415      3418      3419
      3415      3418      3420      3415      3418      3421      3419      3418      3420
      3419      3418      3421      3420      3418      3421      3418      3421      3422
      3418      3421      3423      3418      3421      3424      3422      3421      3423
      3422      3421      3424      3423      3421      3424      3421      3424      3425
      3421      3424      3426      3421      3424      3427      3425      3424      3426
      3425      3424      3427      3426      3424      3427      3424      3427      3428
      3424      3427      3429      3424      3427      3430      3428      3427      3429
      3428      3427      3430      3429      3427      3430      3427      3430      3431
      3427      3430      3432      3427      3430      3433      3431      3430      3432
      3431      3430      3433      3432      3430      3433      3430      3433      3434
      3430      3433      3435      3430      3433      3436      3434      3433      3435
      3434      3433      3436      3435      3433      3436      3433      3436      3437
      3433      3436      3438      3433      3436      3439      3437      3436      3438
      3437      3436      3439      3438      3436      3439      3436      3439      3440
      3436      3439      3441      3436      3439      3442      3440      3439      3441
      3440      3439      3442      3441      3439      3442      3444      3443      3447
      3444      3443      3451      3444      3443      3455      3447      3443      3451
      3447      3443      3455      3451      3443      3455      3443      3444      3445
      3443      3444      3446      3443      3444      3459      3445      3444      3446
      3445      3444      3459      3446      3444      3459      3443      3447      3448
      3443      3447      3449      3443      3447      3450      3448      3447      3449
      3448      3447      3450      3449      3447      3450      3443      3451      3452
      3443      3451      3453      3443      3451      3454      3452      3451      3453
      3452      3451      3454      3453      3451      3454      3443      3455      3456
      3443      3455      3457      3443      3455      3458      3456      3455      3457
      3456      3455      3458      3457      3455      3458      3444      3459      3460
      3444      3459      3461      3444      3459      3465      3460      3459      3461
      3460      3459      3465      3461      3459      3465      3463      3462      3464
      3463      3462      3465      3463      3462      3466      3464      3462      3465
      3464      3462      3466      3465      3462      3466      3459      3465      3462
      3462      3466      3467      3466      3467      3468      3466      3467      3469
      3466      3467      3470      3468      3467      3469      3468      3467      3470
      3469      3467      3470      3467      3470      3471      3467      3470      3472
      3467      3470      3478      3471      3470      3472      3471      3470      3478
      3472      3470      3478      3470      3472      3473      3472      3473      3474
      3472      3473      3475      3474      3473      3475      3473      3475      3476
      3473      3475      3477      3473      3475      3487      3476      3475      3477
      3476      3475      3487      3477      3475      3487      3470      3478      3479
      3470      3478      3480      3470      3478      3481      3479      3478      3480
      3479      3478      3481      3480      3478      3481      3478      3481      3482
      3481      3482      3483      3481      3482      3484      3483      3482      3484
      3482      3484      3485      3482      3484      3486      3482      3484      3534
      3485      3484      3486      3485      3484      3534      3486      3484      3534
      3475      3487      3488      3475      3487      3489      3475      3487      3490
      3488      3487      3489      3488      3487      3490      3489      3487      3490
      3487      3490      3491      3487      3490      3492      3487      3490      3493
      3491      3490      3492      3491      3490      3493      3492      3490      3493
      3490      3493      3494      3490      3493      3495      3490      3493      3496
      3494      3493      3495      3494      3493      3496      3495      3493      3496
      3493      3496      3497      3493      3496      3498      3493      3496      3499
      3497      3496      3498      3497      3496      3499      3498      3496      3499
      3496      3499      3500      3496      3499      3501      3496      3499      3502
      3500      3499      3501      3500      3499      3502      3501      3499      3502
      3499      3502      3503      3499      3502      3504      3499      3502      3505
      3503      3502      3504      3503      3502      3505      3504      3502      3505
      3502      3505      3506      3502      3505      3507      3506      3505      3507
      3505      3507      3508      3505      3507      3509      3508      3507      3509
      3507      3509      3510      3507      3509      3511      3507      3509      3512
      3510      3509      3511      3510      3509      3512      3511      3509      3512
      3509      3512      3513      3509      3512      3514      3509      3512      3515
      3513      3512      3514      3513      3512      3515      3514      3512      3515
      3512      3515      3516      3512      3515      3517      3512      3515      3518
      3516      3515      3517      3516      3515      3518      3517      3515      3518
      3515      3518      3519      3515      3518      3520      3515      3518      3521
      3519      3518      3520      3519      3518      3521      3520      3518      3521
      3518      3521      3522      3518      3521      3523      3518      3521      3524
      3522      3521      3523      3522      3521      3524      3523      3521      3524
      3521      3524      3525      3521      3524      3526      3521      3524      3527
      3525      3524      3526      3525      3524      3527      3526      3524      3527
      3524      3527      3528      3524      3527      3529      3524      3527      3530
      3528      3527      3529      3528      3527      3530      3529      3527      3530
      3527      3530      3531      3527      3530      3532      3527      3530      3533
      3531      3530      3532      3531      3530      3533      3532      3530      3533
      3484      3534      3535      3484      3534      3536      3484      3534      3537
      3535      3534      3536      3535      3534      3537      3536      3534      3537
      3534      3537      3538      3534      3537      3539      3534      3537      3540
      3538      3537      3539      3538      3537      3540      3539      3537      3540
      3537      3540      3541      3537      3540      3542      3537      3540      3543
      3541      3540      3542      3541      3540      3543      3542      3540      3543
      3540      3543      3544      3540      3543      3545      3540      3543      3546
      3544      3543      3545      3544      3543      3546      3545      3543      3546
      3543      3546      3547      3543      3546      3548      3543      3546      3549
      3547      3546      3548      3547      3546      3549      3548      3546      3549
      3546      3549      3550      3546      3549      3551      3546      3549      3552
      3550      3549      3551      3550      3549      3552      3551      3549      3552
      3549      3552      3553      3549      3552      3554      3549      3552      3555
      3553      3552      3554      3553      3552      3555      3554      3552      3555
      3552      3555      3556      3552      3555      3557      3552      3555      3558
      3556      3555      3557      3556      3555      3558      3557      3555      3558
      3555      3558      3559      3555      3558      3560      3555      3558      3561
      3559      3558      3560      3559      3558      3561      3560      3558      3561
      3558      3561      3562      3558      3561      3563      3558      3561      3564
      3562      3561      3563      3562      3561      3564      3563      3561      3564
      3561      3564      3565      3561      3564      3566      3561      3564      3567
      3565      3564      3566      3565      3564      3567      3566      3564      3567
      3564      3567      3568      3564      3567      3569      3564      3567      3570
      3568      3567      3569      3568      3567      3570      3569      3567      3570
      3567      3570      3571      3567      3570      3572      3567      3570      3573
      3571      3570      3572      3571      3570      3573      3572      3570      3573
      3570      3573      3574      3570      3573      3575      3570      3573      3576
      3574      3573      3575      3574      3573      3576      3575      3573      3576
      3578      3577      3581      3578      3577      3585      3578      3577      3589
      3581      3577      3585      3581      3577      3589      3585      3577      3589
      3577      3578      3579      3577      3578      3580      3577      3578      3593
      3579      3578      3580      3579      3578      3593      3580      3578      3593
      3577      3581      3582      3577      3581      3583      3577      3581      3584
      3582      3581      3583      3582      3581      3584      3583      3581      3584
      3577      3585      3586      3577      3585      3587      3577      3585      3588
      3586      3585      3587      3586      3585      3588      3587      3585      3588
      3577      3589      3590      3577      3589      3591      3577      3589      3592
      3590      3589      3591      3590      3589      3592      3591      3589      3592
      3578      3593      3594      3578      3593      3595      3578      3593      3599
      3594      3593      3595      3594      3593      3599      3595      3593      3599
      3597      3596      3598      3597      3596      3599      3597      3596      3600
      3598      3596      3599      3598      3596      3600      3599      3596      3600
      3593      3599      3596      3596      3600      3601      3600      3601      3602
      3600      3601      3603      3600      3601      3604      3602      3601      3603
      3602      3601      3604      3603      3601      3604      3601      3604      3605
      3601      3604      3606      3601      3604      3612      3605      3604      3606
      3605      3604      3612      3606      3604      3612      3604      3606      3607
      3606      3607      3608      3606      3607      3609      3608      3607      3609
      3607      3609      3610      3607      3609      3611      3607      3609      3621
      3610      3609      3611      3610      3609      3621      3611      3609      3621
      3604      3612      3613      3604      3612      3614      3604      3612      3615
      3613      3612      3614      3613      3612      3615      3614      3612      3615
      3612      3615      3616      3615      3616      3617      3615      3616      3618
      3617      3616      3618      3616      3618      3619      3616      3618      3620
      3616      3618      3668      3619      3618      3620      3619      3618      3668
      3620      3618      3668      3609      3621      3622      3609      3621      3623
      3609      3621      3624      3622      3621      3623      3622      3621      3624
      3623      3621      3624      3621      3624      3625      3621      3624      3626
      3621      3624      3627      3625      3624      3626      3625      3624      3627
      3626      3624      3627      3624      3627      3628      3624      3627      3629
      3624      3627      3630      3628      3627      3629      3628      3627      3630
      3629      3627      3630      3627      3630      3631      3627      3630      3632
      3627      3630      3633      3631      3630      3632      3631      3630      3633
      3632      3630      3633      3630      3633      3634      3630      3633      3635
      3630      3633      3636      3634      3633      3635      3634      3633      3636
      3635      3633      3636      3633      3636      3637      3633      3636      3638
      3633      3636      3639      3637      3636      3638      3637      3636      3639
      3638      3636      3639      3636      3639      3640      3636      3639      3641
      3640      3639      3641      3639      3641      3642      3639      3641      3643
      3642      3641      3643      3641      3643      3644      3641      3643      3645
      3641      3643      3646      3644      3643      3645      3644      3643      3646
      3645      3643      3646      3643      3646      3647      3643      3646      3648
      3643      3646      3649      3647      3646      3648      3647      3646      3649
      3648      3646      3649      3646      3649      3650      3646      3649      3651
      3646      3649      3652      3650      3649      3651      3650      3649      3652
      3651      3649      3652      3649      3652      3653      3649      3652      3654
      3649      3652      3655      3653      3652      3654      3653      3652      3655
      3654      3652      3655      3652      3655      3656      3652      3655      3657
      3652      3655      3658      3656      3655      3657      3656      3655      3658
      3657      3655      3658      3655      3658      3659      3655      3658      3660
      3655      3658      3661      3659      3658      3660      3659      3658      3661
      3660      3658      3661      3658      3661      3662      3658      3661      3663
      3658      3661      3664      3662      3661      3663      3662      3661      3664
      3663      3661      3664      3661      3664      3665      3661      3664      3666
      3661      3664      3667      3665      3664      3666      3665      3664      3667
      3666      3664      3667      3618      3668      3669      3618      3668      3670
      3618      3668      3671      3669      3668      3670      3669      3668      3671
      3670      3668      3671      3668      3671      3672      3668      3671      3673
      3668      3671      3674      3672      3671      3673      3672      3671      3674
      3673      3671      3674      3671      3674      3675      3671      3674      3676
      3671      3674      3677      3675      3674      3676      3675      3674      3677
      3676      3674      3677      3674      3677      3678      3674      3677      3679
      3674      3677      3680      3678      3677      3679      3678      3677      3680
      3679      3677      3680      3677      3680      3681      3677      3680      3682
      3677      3680      3683      3681      3680      3682      3681      3680      3683
      3682      3680      3683      3680      3683      3684      3680      3683      3685
      3680      3683      3686      3684      3683      3685      3684      3683      3686
      3685      3683      3686      3683      3686      3687      3683      3686      3688
      3683      3686      3689      3687      3686      3688      3687      3686      3689
      3688      3686      3689      3686      3689      3690      3686      3689      3691
      3686      3689      3692      3690      3689      3691      3690      3689      3692
      3691      3689      3692      3689      3692      3693      3689      3692      3694
      3689      3692      3695      3693      3692      3694      3693      3692      3695
      3694      3692      3695      3692      3695      3696      3692      3695      3697
      3692      3695      3698      3696      3695      3697      3696      3695      3698
      3697      3695      3698      3695      3698      3699      3695      3698      3700
      3695      3698      3701      3699      3698      3700      3699      3698      3701
      3700      3698      3701      3698      3701      3702      3698      3701      3703
      3698      3701      3704      3702      3701      3703      3702      3701      3704
      3703      3701      3704      3701      3704      3705      3701      3704      3706
      3701      3704      3707      3705      3704      3706      3705      3704      3707
      3706      3704      3707      3704      3707      3708      3704      3707      3709
      3704      3707      3710      3708      3707      3709      3708      3707      3710
      3709      3707      3710      3712      3711      3715      3712      3711      3719
      3712      3711      3723      3715      3711      3719      3715      3711      3723
      3719      3711      3723      3711      3712      3713      3711      3712      3714
      3711      3712      3727      3713      3712      3714      3713      3712      3727
      3714      3712      3727      3711      3715      3716      3711      3715      3717
      3711      3715      3718      3716      3715      3717      3716      3715      3718
      3717      3715      3718      3711      3719      3720      3711      3719      3721
      3711      3719      3722      3720      3719      3721      3720      3719      3722
      3721      3719      3722      3711      3723      3724      3711      3723      3725
      3711      3723      3726      3724      3723      3725      3724      3723      3726
      3725      3723      3726      3712      3727      3728      3712      3727      3729
      3712      3727      3733      3728      3727      3729      3728      3727      3733
      3729      3727      3733      3731      3730      3732      3731      3730      3733
      3731      3730      3734      3732      3730      3733      3732      3730      3734
      3733      3730      3734      3727      3733      3730      3730      3734      3735
      3734      3735      3736      3734      3735      3737      3734      3735      3738
      3736      3735      3737      3736      3735      3738      3737      3735      3738
      3735      3738      3739      3735      3738      3740      3735      3738      3746
      3739      3738      3740      3739      3738      3746      3740      3738      3746
      3738      3740      3741      3740      3741      3742      3740      3741      3743
      3742      3741      3743      3741      3743      3744      3741      3743      3745
      3741      3743      3755      3744      3743      3745      3744      3743      3755
      3745      3743      3755      3738      3746      3747      3738      3746      3748
      3738      3746      3749      3747      3746      3748      3747      3746      3749
      3748      3746      3749      3746      3749      3750      3749      3750      3751
      3749      3750      3752      3751      3750      3752      3750      3752      3753
      3750      3752      3754      3750      3752      3802      3753      3752      3754
      3753      3752      3802      3754      3752      3802      3743      3755      3756
      3743      3755      3757      3743      3755      3758      3756      3755      3757
      3756      3755      3758      3757      3755      3758      3755      3758      3759
      3755      3758      3760      3755      3758      3761      3759      3758      3760
      3759      3758      3761      3760      3758      3761      3758      3761      3762
      3758      3761      3763      3758      3761      3764      3762      3761      3763
      3762      3761      3764      3763      3761      3764      3761      3764      3765
      3761      3764      3766      3761      3764      3767      3765      3764      3766
      3765      3764      3767      3766      3764      3767      3764      3767      3768
      3764      3767      3769      3764      3767      3770      3768      3767      3769
      3768      3767      3770      3769      3767      3770      3767      3770      3771
      3767      3770      3772      3767      3770      3773      3771      3770      3772
      3771      3770      3773      3772      3770      3773      3770      3773      3774
      3770      3773      3775      3774      3773      3775      3773      3775      3776
      3773      3775      3777      3776      3775      3777      3775      3777      3778
      3775      3777      3779      3775      3777      3780      3778      3777      3779
      3778      3777      3780      3779      3777      3780      3777      3780      3781
      3777      3780      3782      3777      3780      3783      3781      3780      3782
      3781      3780      3783      3782      3780      3783      3780      3783      3784
      3780      3783      3785      3780      3783      3786      3784      3783      3785
      3784      3783      3786      3785      3783      3786      3783      3786      3787
      3783      3786      3788      3783      3786      3789      3787      3786      3788
      3787      3786      3789      3788      3786      3789      3786      3789      3790
      3786      3789      3791      3786      3789      3792      3790      3789      3791
      3790      3789      3792      3791      3789      3792      3789      3792      3793
      3789      3792      3794      3789      3792      3795      3793      3792      3794
      3793      3792      3795      3794      3792      3795      3792      3795      3796
      3792      3795      3797      3792      3795      3798      3796      3795      3797
      3796      3795      3798      3797      3795      3798      3795      3798      3799
      3795      3798      3800      3795      3798      3801      3799      3798      3800
      3799      3798      3801      3800      3798      3801      3752      3802      3803
      3752      3802      3804      3752      3802      3805      3803      3802      3804
      3803      3802      3805      3804      3802      3805      3802      3805      3806
      3802      3805      3807      3802      3805      3808      3806      3805      3807
      3806      3805      3808      3807      3805      3808      3805      3808      3809
      3805      3808      3810      3805      3808      3811      3809      3808      3810
      3809      3808      3811      3810      3808      3811      3808      3811      3812
      3808      3811      3813      3808      3811      3814      3812      3811      3813
      3812      3811      3814      3813      3811      3814      3811      3814      3815
      3811      3814      3816      3811      3814      3817      3815      3814      3816
      3815      3814      3817      3816      3814      3817      3814      3817      3818
      3814      3817      3819      3814      3817      3820      3818      3817      3819
      3818      3817      3820      3819      3817      3820      3817      3820      3821
      3817      3820      3822      3817      3820      3823      3821      3820      3822
      3821      3820      3823      3822      3820      3823      3820      3823      3824
      3820      3823      3825      3820      3823      3826      3824      3823      3825
      3824      3823      3826      3825      3823      3826      3823      3826      3827
      3823      3826      3828      3823      3826      3829      3827      3826      3828
      3827      3826      3829      3828      3826      3829      3826      3829      3830
      3826      3829      3831      3826      3829      3832      3830      3829      3831
      3830      3829      3832      3831      3829      3832      3829      3832      3833
      3829      3832      3834      3829      3832      3835      3833      3832      3834
      3833      3832      3835      3834      3832      3835      3832      3835      3836
      3832      3835      3837      3832      3835      3838      3836      3835      3837
      3836      3835      3838      3837      3835      3838      3835      3838      3839
      3835      3838      3840      3835      3838      3841      3839      3838      3840
      3839      3838      3841      3840      3838      3841      3838      3841      3842
      3838      3841      3843      3838      3841      3844      3842      3841      3843
      3842      3841      3844      3843      3841      3844      3846      3845      3849
      3846      3845      3853      3846      3845      3857      3849      3845      3853
      3849      3845      3857      3853      3845      3857      3845      3846      3847
      3845      3846      3848      3845      3846      3861      3847      3846      3848
      3847      3846      3861      3848      3846      3861      3845      3849      3850
      3845      3849      3851      3845      3849      3852      3850      3849      3851
      3850      3849      3852      3851      3849      3852      3845      3853      3854
      3845      3853      3855      3845      3853      3856      3854      3853      3855
      3854      3853      3856      3855      3853      3856      3845      3857      3858
      3845      3857      3859      3845      3857      3860      3858      3857      3859
      3858      3857      3860      3859      3857      3860      3846      3861      3862
      3846      3861      3863      3846      3861      3867      3862      3861      3863
      3862      3861      3867      3863      3861      3867      3865      3864      3866
      3865      3864      3867      3865      3864      3868      3866      3864      3867
      3866      3864      3868      3867      3864      3868      3861      3867      3864
      3864      3868      3869      3868      3869      3870      3868      3869      3871
      3868      3869      3872      3870      3869      3871      3870      3869      3872
      3871      3869      3872      3869      3872      3873      3869      3872      3874
      3869      3872      3880      3873      3872      3874      3873      3872      3880
      3874      3872      3880      3872      3874      3875      3874      3875      3876
      3874      3875      3877      3876      3875      3877      3875      3877      3878
      3875      3877      3879      3875      3877      3889      3878      3877      3879
      3878      3877      3889      3879      3877      3889      3872      3880      3881
      3872      3880      3882      3872      3880      3883      3881      3880      3882
      3881      3880      3883      3882      3880      3883      3880      3883      3884
      3883      3884      3885      3883      3884      3886      3885      3884      3886
      3884      3886      3887      3884      3886      3888      3884      3886      3936
      3887      3886      3888      3887      3886      3936      3888      3886      3936
      3877      3889      3890      3877      3889      3891      3877      3889      3892
      3890      3889      3891      3890      3889      3892      3891      3889      3892
      3889      3892      3893      3889      3892      3894      3889      3892      3895
      3893      3892      3894      3893      3892      3895      3894      3892      3895
      3892      3895      3896      3892      3895      3897      3892      3895      3898
      3896      3895      3897      3896      3895      3898      3897      3895      3898
      3895      3898      3899      3895      3898      3900      3895      3898      3901
      3899      3898      3900      3899      3898      3901      3900      3898      3901
      3898      3901      3902      3898      3901      3903      3898      3901      3904
      3902      3901      3903      3902      3901      3904      3903      3901      3904
      3901      3904      3905      3901      3904      3906      3901      3904      3907
      3905      3904      3906      3905      3904      3907      3906      3904      3907
      3904      3907      3908      3904      3907      3909      3908      3907      3909
      3907      3909      3910      3907      3909      3911      3910      3909      3911
      3909      3911      3912      3909      3911      3913      3909      3911      3914
      3912      3911      3913      3912      3911      3914      3913      3911      3914
      3911      3914      3915      3911      3914      3916      3911      3914      3917
      3915      3914      3916      3915      3914      3917      3916      3914      3917
      3914      3917      3918      3914      3917      3919      3914      3917      3920
      3918      3917      3919      3918      3917      3920      3919      3917      3920
      3917      3920      3921      3917      3920      3922      3917      3920      3923
      3921      3920      3922      3921      3920      3923      3922      3920      3923
      3920      3923      3924      3920      3923      3925      3920      3923      3926
      3924      3923      3925      3924      3923      3926      3925      3923      3926
      3923      3926      3927      3923      3926      3928      3923      3926      3929
      3927      3926      3928      3927      3926      3929      3928      3926      3929
      3926      3929      3930      3926      3929      3931      3926      3929      3932
      3930      3929      3931      3930      3929      3932      3931      3929      3932
      3929      3932      3933      3929      3932      3934      3929      3932      3935
      3933      3932      3934      3933      3932      3935      3934      3932      3935
      3886      3936      3937      3886      3936      3938      3886      3936      3939
      3937      3936      3938      3937      3936      3939      3938      3936      3939
      3936      3939      3940      3936      3939      3941      3936      3939      3942
      3940      3939      3941      3940      3939      3942      3941      3939      3942
      3939      3942      3943      3939      3942      3944      3939      3942      3945
      3943      3942      3944      3943      3942      3945      3944      3942      3945
      3942      3945      3946      3942      3945      3947      3942      3945      3948
      3946      3945      3947      3946      3945      3948      3947      3945      3948
      3945      3948      3949      3945      3948      3950      3945      3948      3951
      3949      3948      3950      3949      3948      3951      3950      3948      3951
      3948      3951      3952      3948      3951      3953      3948      3951      3954
      3952      3951      3953      3952      3951      3954      3953      3951      3954
      3951      3954      3955      3951      3954      3956      3951      3954      3957
      3955      3954      3956      3955      3954      3957      3956      3954      3957
      3954      3957      3958      3954      3957      3959      3954      3957      3960
      3958      3957      3959      3958      3957      3960      3959      3957      3960
      3957      3960      3961      3957      3960      3962      3957      3960      3963
      3961      3960      3962      3961      3960      3963      3962      3960      3963
      3960      3963      3964      3960      3963      3965      3960      3963      3966
      3964      3963      3965      3964      3963      3966      3965      3963      3966
      3963      3966      3967      3963      3966      3968      3963      3966      3969
      3967      3966      3968      3967      3966      3969      3968      3966      3969
      3966      3969      3970      3966      3969      3971      3966      3969      3972
      3970      3969      3971      3970      3969      3972      3971      3969      3972
      3969      3972      3973      3969      3972      3974      3969      3972      3975
      3973      3972      3974      3973      3972      3975      3974      3972      3975
      3972      3975      3976      3972      3975      3977      3972      3975      3978
      3976      3975      3977      3976      3975      3978      3977      3975      3978
      3980      3979      3981      3980      3979      3982      3980      3979      3983
      3981      3979      3982      3981      3979      3983      3982      3979      3983
      3979      3983      3984      3979      3983      3985      3979      3983      3988
      3984      3983      3985      3984      3983      3988      3985      3983      3988
      3983      3985      3986      3983      3985      3987      3986      3985      3987
      3983      3988      3989      3983      3988      3990      3983      3988      3994
      3989      3988      3990      3989      3988      3994      3990      3988      3994
      3992      3991      3993      3992      3991      3994      3992      3991      3995
      3993      3991      3994      3993      3991      3995      3994      3991      3995
      3988      3994      3991      3991      3995      3996      3995      3996      3997
      3995      3996      3998      3995      3996      3999      3997      3996      3998
      3997      3996      3999      3998      3996      3999      3996      3999      4000
      3996      3999      4001      3996      3999      4007      4000      3999      4001
      4000      3999      4007      4001      3999      4007      3999      4001      4002
      4001      4002      4003      4001      4002      4004      4003      4002      4004
      4002      4004      4005      4002      4004      4006      4002      4004      4016
      4005      4004      4006      4005      4004      4016      4006      4004      4016
      3999      4007      4008      3999      4007      4009      3999      4007      4010
      4008      4007      4009      4008      4007      4010      4009      4007      4010
      4007      4010      4011      4010      4011      4012      4010      4011      4013
      4012      4011      4013      4011      4013      4014      4011      4013      4015
      4011      4013      4063      4014      4013      4015      4014      4013      4063
      4015      4013      4063      4004      4016      4017      4004      4016      4018
      4004      4016      4019      4017      4016      4018      4017      4016      4019
      4018      4016      4019      4016      4019      4020      4016      4019      4021
      4016      4019      4022      4020      4019      4021      4020      4019      4022
      4021      4019      4022      4019      4022      4023      4019      4022      4024
      4019      4022      4025      4023      4022      4024      4023      4022      4025
      4024      4022      4025      4022      4025      4026      4022      4025      4027
      4022      4025      4028      4026      4025      4027      4026      4025      4028
      4027      4025      4028      4025      4028      4029      4025      4028      4030
      4025      4028      4031      4029      4028      4030      4029      4028      4031
      4030      4028      4031      4028      4031      4032      4028      4031      4033
      4028      4031      4034      4032      4031      4033      4032      4031      4034
      4033      4031      4034      4031      4034      4035      4031      4034      4036
      4035      4034      4036      4034      4036      4037      4034      4036      4038
      4037      4036      4038      4036      4038      4039      4036      4038      4040
      4036      4038      4041      4039      4038      4040      4039      4038      4041
      4040      4038      4041      4038      4041      4042      4038      4041      4043
      4038      4041      4044      4042      4041      4043      4042      4041      4044
      4043      4041      4044      4041      4044      4045      4041      4044      4046
      4041      4044      4047      4045      4044      4046      4045      4044      4047
      4046      4044      4047      4044      4047      4048      4044      4047      4049
      4044      4047      4050      4048      4047      4049      4048      4047      4050
      4049      4047      4050      4047      4050      4051      4047      4050      4052
      4047      4050      4053      4051      4050      4052      4051      4050      4053
      4052      4050      4053      4050      4053      4054      4050      4053      4055
      4050      4053      4056      4054      4053      4055      4054      4053      4056
      4055      4053      4056      4053      4056      4057      4053      4056      4058
      4053      4056      4059      4057      4056      4058      4057      4056      4059
      4058      4056      4059      4056      4059      4060      4056      4059      4061
      4056      4059      4062      4060      4059      4061      4060      4059      4062
      4061      4059      4062      4013      4063      4064      4013      4063      4065
      4013      4063      4066      4064      4063      4065      4064      4063      4066
      4065      4063      4066      4063      4066      4067      4063      4066      4068
      4063      4066      4069      4067      4066      4068      4067      4066      4069
      4068      4066      4069      4066      4069      4070      4066      4069      4071
      4066      4069      4072      4070      4069      4071      4070      4069      4072
      4071      4069      4072      4069      4072      4073      4069      4072      4074
      4069      4072      4075      4073      4072      4074      4073      4072      4075
      4074      4072      4075      4072      4075      4076      4072      4075      4077
      4072      4075      4078      4076      4075      4077      4076      4075      4078
      4077      4075      4078      4075      4078      4079      4075      4078      4080
      4075      4078      4081      4079      4078      4080      4079      4078      4081
      4080      4078      4081      4078      4081      4082      4078      4081      4083
      4078      4081      4084      4082      4081      4083      4082      4081      4084
      4083      4081      4084      4081      4084      4085      4081      4084      4086
      4081      4084      4087      4085      4084      4086      4085      4084      4087
      4086      4084      4087      4084      4087      4088      4084      4087      4089
      4084      4087      4090      4088      4087      4089      4088      4087      4090
      4089      4087      4090      4087      4090      4091      4087      4090      4092
      4087      4090      4093      4091      4090      4092      4091      4090      4093
      4092      4090      4093      4090      4093      4094      4090      4093      4095
      4090      4093      4096      4094      4093      4095      4094      4093      4096
      4095      4093      4096      4093      4096      4097      4093      4096      4098
      4093      4096      4099      4097      4096      4098      4097      4096      4099
      4098      4096      4099      4096      4099      4100      4096      4099      4101
      4096      4099      4102      4100      4099      4101      4100      4099      4102
      4101      4099      4102      4099      4102      4103      4099      4102      4104
      4099      4102      4105      4103      4102      4104      4103      4102      4105
      4104      4102      4105      4107      4106      4110      4107      4106      4114
      4107      4106      4118      4110      4106      4114      4110      4106      4118
      4114      4106      4118      4106      4107      4108      4106      4107      4109
      4106      4107      4122      4108      4107      4109      4108      4107      4122
      4109      4107      4122      4106      4110      4111      4106      4110      4112
      4106      4110      4113      4111      4110      4112      4111      4110      4113
      4112      4110      4113      4106      4114      4115      4106      4114      4116
      4106      4114      4117      4115      4114      4116      4115      4114      4117
      4116      4114      4117      4106      4118      4119      4106      4118      4120
      4106      4118      4121      4119      4118      4120      4119      4118      4121
      4120      4118      4121      4107      4122      4123      4107      4122      4124
      4107      4122      4128      4123      4122      4124      4123      4122      4128
      4124      4122      4128      4126      4125      4127      4126      4125      4128
      4126      4125      4129      4127      4125      4128      4127      4125      4129
      4128      4125      4129      4122      4128      4125      4125      4129      4130
      4129      4130      4131      4129      4130      4132      4129      4130      4133
      4131      4130      4132      4131      4130      4133      4132      4130      4133
      4130      4133      4134      4130      4133      4135      4130      4133      4141
      4134      4133      4135      4134      4133      4141      4135      4133      4141
      4133      4135      4136      4135      4136      4137      4135      4136      4138
      4137      4136      4138      4136      4138      4139      4136      4138      4140
      4136      4138      4150      4139      4138      4140      4139      4138      4150
      4140      4138      4150      4133      4141      4142      4133      4141      4143
      4133      4141      4144      4142      4141      4143      4142      4141      4144
      4143      4141      4144      4141      4144      4145      4144      4145      4146
      4144      4145      4147      4146      4145      4147      4145      4147      4148
      4145      4147      4149      4145      4147      4197      4148      4147      4149
      4148      4147      4197      4149      4147      4197      4138      4150      4151
      4138      4150      4152      4138      4150      4153      4151      4150      4152
      4151      4150      4153      4152      4150      4153      4150      4153      4154
      4150      4153      4155      4150      4153      4156      4154      4153      4155
      4154      4153      4156      4155      4153      4156      4153      4156      4157
      4153      4156      4158      4153      4156      4159      4157      4156      4158
      4157      4156      4159      4158      4156      4159      4156      4159      4160
      4156      4159      4161      4156      4159      4162      4160      4159      4161
      4160      4159      4162      4161      4159      4162      4159      4162      4163
      4159      4162      4164      4159      4162      4165      4163      4162      4164
      4163      4162      4165      4164      4162      4165      4162      4165      4166
      4162      4165      4167      4162      4165      4168      4166      4165      4167
      4166      4165      4168      4167      4165      4168      4165      4168      4169
      4165      4168      4170      4169      4168      4170      4168      4170      4171
      4168      4170      4172      4171      4170      4172      4170      4172      4173
      4170      4172      4174      4170      4172      4175      4173      4172      4174
      4173      4172      4175      4174      4172      4175      4172      4175      4176
      4172      4175      4177      4172      4175      4178      4176      4175      4177
      4176      4175      4178      4177      4175      4178      4175      4178      4179
      4175      4178      4180      4175      4178      4181      4179      4178      4180
      4179      4178      4181      4180      4178      4181      4178      4181      4182
      4178      4181      4183      4178      4181      4184      4182      4181      4183
      4182      4181      4184      4183      4181      4184      4181      4184      4185
      4181      4184      4186      4181      4184      4187      4185      4184      4186
      4185      4184      4187      4186      4184      4187      4184      4187      4188
      4184      4187      4189      4184      4187      4190      4188      4187      4189
      4188      4187      4190      4189      4187      4190      4187      4190      4191
      4187      4190      4192      4187      4190      4193      4191      4190      4192
      4191      4190      4193      4192      4190      4193      4190      4193      4194
      4190      4193      4195      4190      4193      4196      4194      4193      4195
      4194      4193      4196      4195      4193      4196      4147      4197      4198
      4147      4197      4199      4147      4197      4200      4198      4197      4199
      4198      4197      4200      4199      4197      4200      4197      4200      4201
      4197      4200      4202      4197      4200      4203      4201      4200      4202
      4201      4200      4203      4202      4200      4203      4200      4203      4204
      4200      4203      4205      4200      4203      4206      4204      4203      4205
      4204      4203      4206      4205      4203      4206      4203      4206      4207
      4203      4206      4208      4203      4206      4209      4207      4206      4208
      4207      4206      4209      4208      4206      4209      4206      4209      4210
      4206      4209      4211      4206      4209      4212      4210      4209      4211
      4210      4209      4212      4211      4209      4212      4209      4212      4213
      4209      4212      4214      4209      4212      4215      4213      4212      4214
      4213      4212      4215      4214      4212      4215      4212      4215      4216
      4212      4215      4217      4212      4215      4218      4216      4215      4217
      4216      4215      4218      4217      4215      4218      4215      4218      4219
      4215      4218      4220      4215      4218      4221      4219      4218      4220
      4219      4218      4221      4220      4218      4221      4218      4221      4222
      4218      4221      4223      4218      4221      4224      4222      4221      4223
      4222      4221      4224      4223      4221      4224      4221      4224      4225
      4221      4224      4226      4221      4224      4227      4225      4224      4226
      4225      4224      4227      4226      4224      4227      4224      4227      4228
      4224      4227      4229      4224      4227      4230      4228      4227      4229
      4228      4227      4230      4229      4227      4230      4227      4230      4231
      4227      4230      4232      4227      4230      4233      4231      4230      4232
      4231      4230      4233      4232      4230      4233      4230      4233      4234
      4230      4233      4235      4230      4233      4236      4234      4233      4235
      4234      4233      4236      4235      4233      4236      4233      4236      4237
      4233      4236      4238      4233      4236      4239      4237      4236      4238
      4237      4236      4239      4238      4236      4239      4241      4240      4244
      4241      4240      4248      4241      4240      4252      4244      4240      4248
      4244      4240      4252      4248      4240      4252      4240      4241      4242
      4240      4241      4243      4240      4241      4256      4242      4241      4243
      4242      4241      4256      4243      4241      4256      4240      4244      4245
      4240      4244      4246      4240      4244      4247      4245      4244      4246
      4245      4244      4247      4246      4244      4247      4240      4248      4249
      4240      4248      4250      4240      4248      4251      4249      4248      4250
      4249      4248      4251      4250      4248      4251      4240      4252      4253
      4240      4252      4254      4240      4252      4255      4253      4252      4254
      4253      4252      4255      4254      4252      4255      4241      4256      4257
      4241      4256      4258      4241      4256      4262      4257      4256      4258
      4257      4256      4262      4258      4256      4262      4260      4259      4261
      4260      4259      4262      4260      4259      4263      4261      4259      4262
      4261      4259      4263      4262      4259      4263      4256      4262      4259
      4259      4263      4264      4263      4264      4265      4263      4264      4266
      4263      4264      4267      4265      4264      4266      4265      4264      4267
      4266      4264      4267      4264      4267      4268      4264      4267      4269
      4264      4267      4275      4268      4267      4269      4268      4267      4275
      4269      4267      4275      4267      4269      4270      4269      4270      4271
      4269      4270      4272      4271      4270      4272      4270      4272      4273
      4270      4272      4274      4270      4272      4284      4273      4272      4274
      4273      4272      4284      4274      4272      4284      4267      4275      4276
      4267      4275      4277      4267      4275      4278      4276      4275      4277
      4276      4275      4278      4277      4275      4278      4275      4278      4279
      4278      4279      4280      4278      4279      4281      4280      4279      4281
      4279      4281      4282      4279      4281      4283      4279      4281      4331
      4282      4281      4283      4282      4281      4331      4283      4281      4331
      4272      4284      4285      4272      4284      4286      4272      4284      4287
      4285      4284      4286      4285      4284      4287      4286      4284      4287
      4284      4287      4288      4284      4287      4289      4284      4287      4290
      4288      4287      4289      4288      4287      4290      4289      4287      4290
      4287      4290      4291      4287      4290      4292      4287      4290      4293
      4291      4290      4292      4291      4290      4293      4292      4290      4293
      4290      4293      4294      4290      4293      4295      4290      4293      4296
      4294      4293      4295      4294      4293      4296      4295      4293      4296
      4293      4296      4297      4293      4296      4298      4293      4296      4299
      4297      4296      4298      4297      4296      4299      4298      4296      4299
      4296      4299      4300      4296      4299      4301      4296      4299      4302
      4300      4299      4301      4300      4299      4302      4301      4299      4302
      4299      4302      4303      4299      4302      4304      4303      4302      4304
      4302      4304      4305      4302      4304      4306      4305      4304      4306
      4304      4306      4307      4304      4306      4308      4304      4306      4309
      4307      4306      4308      4307      4306      4309      4308      4306      4309
      4306      4309      4310      4306      4309      4311      4306      4309      4312
      4310      4309      4311      4310      4309      4312      4311      4309      4312
      4309      4312      4313      4309      4312      4314      4309      4312      4315
      4313      4312      4314      4313      4312      4315      4314      4312      4315
      4312      4315      4316      4312      4315      4317      4312      4315      4318
      4316      4315      4317      4316      4315      4318      4317      4315      4318
      4315      4318      4319      4315      4318      4320      4315      4318      4321
      4319      4318      4320      4319      4318      4321      4320      4318      4321
      4318      4321      4322      4318      4321      4323      4318      4321      4324
      4322      4321      4323      4322      4321      4324      4323      4321      4324
      4321      4324      4325      4321      4324      4326      4321      4324      4327
      4325      4324      4326      4325      4324      4327      4326      4324      4327
      4324      4327      4328      4324      4327      4329      4324      4327      4330
      4328      4327      4329      4328      4327      4330      4329      4327      4330
      4281      4331      4332      4281      4331      4333      4281      4331      4334
      4332      4331      4333      4332      4331      4334      4333      4331      4334
      4331      4334      4335      4331      4334      4336      4331      4334      4337
      4335      4334      4336      4335      4334      4337      4336      4334      4337
      4334      4337      4338      4334      4337      4339      4334      4337      4340
      4338      4337      4339      4338      4337      4340      4339      4337      4340
      4337      4340      4341      4337      4340      4342      4337      4340      4343
      4341      4340      4342      4341      4340      4343      4342      4340      4343
      4340      4343      4344      4340      4343      4345      4340      4343      4346
      4344      4343      4345      4344      4343      4346      4345      4343      4346
      4343      4346      4347      4343      4346      4348      4343      4346      4349
      4347      4346      4348      4347      4346      4349      4348      4346      4349
      4346      4349      4350      4346      4349      4351      4346      4349      4352
      4350      4349      4351      4350      4349      4352      4351      4349      4352
      4349      4352      4353      4349      4352      4354      4349      4352      4355
      4353      4352      4354      4353      4352      4355      4354      4352      4355
      4352      4355      4356      4352      4355      4357      4352      4355      4358
      4356      4355      4357      4356      4355      4358      4357      4355      4358
      4355      4358      4359      4355      4358      4360      4355      4358      4361
      4359      4358      4360      4359      4358      4361      4360      4358      4361
      4358      4361      4362      4358      4361      4363      4358      4361      4364
      4362      4361      4363      4362      4361      4364      4363      4361      4364
      4361      4364      4365      4361      4364      4366      4361      4364      4367
      4365      4364      4366      4365      4364      4367      4366      4364      4367
      4364      4367      4368      4364      4367      4369      4364      4367      4370
      4368      4367      4369      4368      4367      4370      4369      4367      4370
      4367      4370      4371      4367      4370      4372      4367      4370      4373
      4371      4370      4372      4371      4370      4373      4372      4370      4373
      4375      4374      4378      4375      4374      4382      4375      4374      4386
      4378      4374      4382      4378      4374      4386      4382      4374      4386
      4374      4375      4376      4374      4375      4377      4374      4375      4390
      4376      4375      4377      4376      4375      4390      4377      4375      4390
      4374      4378      4379      4374      4378      4380      4374      4378      4381
      4379      4378      4380      4379      4378      4381      4380      4378      4381
      4374      4382      4383      4374      4382      4384      4374      4382      4385
      4383      4382      4384      4383      4382      4385      4384      4382      4385
      4374      4386      4387      4374      4386      4388      4374      4386      4389
      4387      4386      4388      4387      4386      4389      4388      4386      4389
      4375      4390      4391      4375      4390      4392      4375      4390      4396
      4391      4390      4392      4391      4390      4396      4392      4390      4396
      4394      4393      4395      4394      4393      4396      4394      4393      4397
      4395      4393      4396      4395      4393      4397      4396      4393      4397
      4390      4396      4393      4393      4397      4398      4397      4398      4399
      4397      4398      4400      4397      4398      4401      4399      4398      4400
      4399      4398      4401      4400      4398      4401      4398      4401      4402
      4398      4401      4403      4398      4401      4409      4402      4401      4403
      4402      4401      4409      4403      4401      4409      4401      4403      4404
      4403      4404      4405      4403      4404      4406      4405      4404      4406
      4404      4406      4407      4404      4406      4408      4404      4406      4418
      4407      4406      4408      4407      4406      4418      4408      4406      4418
      4401      4409      4410      4401      4409      4411      4401      4409      4412
      4410      4409      4411      4410      4409      4412      4411      4409      4412
      4409      4412      4413      4412      4413      4414      4412      4413      4415
      4414      4413      4415      4413      4415      4416      4413      4415      4417
      4413      4415      4465      4416      4415      4417      4416      4415      4465
      4417      4415      4465      4406      4418      4419      4406      4418      4420
      4406      4418      4421      4419      4418      4420      4419      4418      4421
      4420      4418      4421      4418      4421      4422      4418      4421      4423
      4418      4421      4424      4422      4421      4423      4422      4421      4424
      4423      4421      4424      4421      4424      4425      4421      4424      4426
      4421      4424      4427      4425      4424      4426      4425      4424      4427
      4426      4424      4427      4424      4427      4428      4424      4427      4429
      4424      4427      4430      4428      4427      4429      4428      4427      4430
      4429      4427      4430      4427      4430      4431      4427      4430      4432
      4427      4430      4433      4431      4430      4432      4431      4430      4433
      4432      4430      4433      4430      4433      4434      4430      4433      4435
      4430      4433      4436      4434      4433      4435      4434      4433      4436
      4435      4433      4436      4433      4436      4437      4433      4436      4438
      4437      4436      4438      4436      4438      4439      4436      4438      4440
      4439      4438      4440      4438      4440      4441      4438      4440      4442
      4438      4440      4443      4441      4440      4442      4441      4440      4443
      4442      4440      4443      4440      4443      4444      4440      4443      4445
      4440      4443      4446      4444      4443      4445      4444      4443      4446
      4445      4443      4446      4443      4446      4447      4443      4446      4448
      4443      4446      4449      4447      4446      4448      4447      4446      4449
      4448      4446      4449      4446      4449      4450      4446      4449      4451
      4446      4449      4452      4450      4449      4451      4450      4449      4452
      4451      4449      4452      4449      4452      4453      4449      4452      4454
      4449      4452      4455      4453      4452      4454      4453      4452      4455
      4454      4452      4455      4452      4455      4456      4452      4455      4457
      4452      4455      4458      4456      4455      4457      4456      4455      4458
      4457      4455      4458      4455      4458      4459      4455      4458      4460
      4455      4458      4461      4459      4458      4460      4459      4458      4461
      4460      4458      4461      4458      4461      4462      4458      4461      4463
      4458      4461      4464      4462      4461      4463      4462      4461      4464
      4463      4461      4464      4415      4465      4466      4415      4465      4467
      4415      4465      4468      4466      4465      4467      4466      4465      4468
      4467      4465      4468      4465      4468      4469      4465      4468      4470
      4465      4468      4471      4469      4468      4470      4469      4468      4471
      4470      4468      4471      4468      4471      4472      4468      4471      4473
      4468      4471      4474      4472      4471      4473      4472      4471      4474
      4473      4471      4474      4471      4474      4475      4471      4474      4476
      4471      4474      4477      4475      4474      4476      4475      4474      4477
      4476      4474      4477      4474      4477      4478      4474      4477      4479
      4474      4477      4480      4478      4477      4479      4478      4477      4480
      4479      4477      4480      4477      4480      4481      4477      4480      4482
      4477      4480      4483      4481      4480      4482      4481      4480      4483
      4482      4480      4483      4480      4483      4484      4480      4483      4485
      4480      4483      4486      4484      4483      4485      4484      4483      4486
      4485      4483      4486      4483      4486      4487      4483      4486      4488
      4483      4486      4489      4487      4486      4488      4487      4486      4489
      4488      4486      4489      4486      4489      4490      4486      4489      4491
      4486      4489      4492      4490      4489      4491      4490      4489      4492
      4491      4489      4492      4489      4492      4493      4489      4492      4494
      4489      4492      4495      4493      4492      4494      4493      4492      4495
      4494      4492      4495      4492      4495      4496      4492      4495      4497
      4492      4495      4498      4496      4495      4497      4496      4495      4498
      4497      4495      4498      4495      4498      4499      4495      4498      4500
      4495      4498      4501      4499      4498      4500      4499      4498      4501
      4500      4498      4501      4498      4501      4502      4498      4501      4503
      4498      4501      4504      4502      4501      4503      4502      4501      4504
      4503      4501      4504      4501      4504      4505      4501      4504      4506
      4501      4504      4507      4505      4504      4506      4505      4504      4507
      4506      4504      4507      4509      4508      4510      4509      4508      4511
      4509      4508      4512      4510      4508      4511      4510      4508      4512
      4511      4508      4512      4508      4512      4513      4508      4512      4514
      4508      4512      4517      4513      4512      4514      4513      4512      4517
      4514      4512      4517      4512      4514      4515      4512      4514      4516
      4515      4514      4516      4512      4517      4518      4512      4517      4519
      4512      4517      4523      4518      4517      4519      4518      4517      4523
      4519      4517      4523      4521      4520      4522      4521      4520      4523
      4521      4520      4524      4522      4520      4523      4522      4520      4524
      4523      4520      4524      4517      4523      4520      4520      4524      4525
      4524      4525      4526      4524      4525      4527      4524      4525      4528
      4526      4525      4527      4526      4525      4528      4527      4525      4528
      4525      4528      4529      4525      4528      4530      4525      4528      4536
      4529      4528      4530      4529      4528      4536      4530      4528      4536
      4528      4530      4531      4530      4531      4532      4530      4531      4533
      4532      4531      4533      4531      4533      4534      4531      4533      4535
      4531      4533      4545      4534      4533      4535      4534      4533      4545
      4535      4533      4545      4528      4536      4537      4528      4536      4538
      4528      4536      4539      4537      4536      4538      4537      4536      4539
      4538      4536      4539      4536      4539      4540      4539      4540      4541
      4539      4540      4542      4541      4540      4542      4540      4542      4543
      4540      4542      4544      4540      4542      4592      4543      4542      4544
      4543      4542      4592      4544      4542      4592      4533      4545      4546
      4533      4545      4547      4533      4545      4548      4546      4545      4547
      4546      4545      4548      4547      4545      4548      4545      4548      4549
      4545      4548      4550      4545      4548      4551      4549      4548      4550
      4549      4548      4551      4550      4548      4551      4548      4551      4552
      4548      4551      4553      4548      4551      4554      4552      4551      4553
      4552      4551      4554      4553      4551      4554      4551      4554      4555
      4551      4554      4556      4551      4554      4557      4555      4554      4556
      4555      4554      4557      4556      4554      4557      4554      4557      4558
      4554      4557      4559      4554      4557      4560      4558      4557      4559
      4558      4557      4560      4559      4557      4560      4557      4560      4561
      4557      4560      4562      4557      4560      4563      4561      4560      4562
      4561      4560      4563      4562      4560      4563      4560      4563      4564
      4560      4563      4565      4564      4563      4565      4563      4565      4566
      4563      4565      4567      4566      4565      4567      4565      4567      4568
      4565      4567      4569      4565      4567      4570      4568      4567      4569
      4568      4567      4570      4569      4567      4570      4567      4570      4571
      4567      4570      4572      4567      4570      4573      4571      4570      4572
      4571      4570      4573      4572      4570      4573      4570      4573      4574
      4570      4573      4575      4570      4573      4576      4574      4573      4575
      4574      4573      4576      4575      4573      4576      4573      4576      4577
      4573      4576      4578      4573      4576      4579      4577      4576      4578
      4577      4576      4579      4578      4576      4579      4576      4579      4580
      4576      4579      4581      4576      4579      4582      4580      4579      4581
      4580      4579      4582      4581      4579      4582      4579      4582      4583
      4579      4582      4584      4579      4582      4585      4583      4582      4584
      4583      4582      4585      4584      4582      4585      4582      4585      4586
      4582      4585      4587      4582      4585      4588      4586      4585      4587
      4586      4585      4588      4587      4585      4588      4585      4588      4589
      4585      4588      4590      4585      4588      4591      4589      4588      4590
      4589      4588      4591      4590      4588      4591      4542      4592      4593
      4542      4592      4594      4542      4592      4595      4593      4592      4594
      4593      4592      4595      4594      4592      4595      4592      4595      4596
      4592      4595      4597      4592      4595      4598      4596      4595      4597
      4596      4595      4598      4597      4595      4598      4595      4598      4599
      4595      4598      4600      4595      4598      4601      4599      4598      4600
      4599      4598      4601      4600      4598      4601      4598      4601      4602
      4598      4601      4603      4598      4601      4604      4602      4601      4603
      4602      4601      4604      4603      4601      4604      4601      4604      4605
      4601      4604      4606      4601      4604      4607      4605      4604      4606
      4605      4604      4607      4606      4604      4607      4604      4607      4608
      4604      4607      4609      4604      4607      4610      4608      4607      4609
      4608      4607      4610      4609      4607      4610      4607      4610      4611
      4607      4610      4612      4607      4610      4613      4611      4610      4612
      4611      4610      4613      4612      4610      4613      4610      4613      4614
      4610      4613      4615      4610      4613      4616      4614      4613      4615
      4614      4613      4616      4615      4613      4616      4613      4616      4617
      4613      4616      4618      4613      4616      4619      4617      4616      4618
      4617      4616      4619      4618      4616      4619      4616      4619      4620
      4616      4619      4621      4616      4619      4622      4620      4619      4621
      4620      4619      4622      4621      4619      4622      4619      4622      4623
      4619      4622      4624      4619      4622      4625      4623      4622      4624
      4623      4622      4625      4624      4622      4625      4622      4625      4626
      4622      4625      4627      4622      4625      4628      4626      4625      4627
      4626      4625      4628      4627      4625      4628      4625      4628      4629
      4625      4628      4630      4625      4628      4631      4629      4628      4630
      4629      4628      4631      4630      4628      4631      4628      4631      4632
      4628      4631      4633      4628      4631      4634      4632      4631      4633
      4632      4631      4634      4633      4631      4634      4636      4635      4639
      4636      4635      4643      4636      4635      4647      4639      4635      4643
      4639      4635      4647      4643      4635      4647      4635      4636      4637
      4635      4636      4638      4635      4636      4651      4637      4636      4638
      4637      4636      4651      4638      4636      4651      4635      4639      4640
      4635      4639      4641      4635      4639      4642      4640      4639      4641
      4640      4639      4642      4641      4639      4642      4635      4643      4644
      4635      4643      4645      4635      4643      4646      4644      4643      4645
      4644      4643      4646      4645      4643      4646      4635      4647      4648
      4635      4647      4649      4635      4647      4650      4648      4647      4649
      4648      4647      4650      4649      4647      4650      4636      4651      4652
      4636      4651      4653      4636      4651      4657      4652      4651      4653
      4652      4651      4657      4653      4651      4657      4655      4654      4656
      4655      4654      4657      4655      4654      4658      4656      4654      4657
      4656      4654      4658      4657      4654      4658      4651      4657      4654
      4654      4658      4659      4658      4659      4660      4658      4659      4661
      4658      4659      4662      4660      4659      4661      4660      4659      4662
      4661      4659      4662      4659      4662      4663      4659      4662      4664
      4659      4662      4670      4663      4662      4664      4663      4662      4670
      4664      4662      4670      4662      4664      4665      4664      4665      4666
      4664      4665      4667      4666      4665      4667      4665      4667      4668
      4665      4667      4669      4665      4667      4679      4668      4667      4669
      4668      4667      4679      4669      4667      4679      4662      4670      4671
      4662      4670      4672      4662      4670      4673      4671      4670      4672
      4671      4670      4673      4672      4670      4673      4670      4673      4674
      4673      4674      4675      4673      4674      4676      4675      4674      4676
      4674      4676      4677      4674      4676      4678      4674      4676      4726
      4677      4676      4678      4677      4676      4726      4678      4676      4726
      4667      4679      4680      4667      4679      4681      4667      4679      4682
      4680      4679      4681      4680      4679      4682      4681      4679      4682
      4679      4682      4683      4679      4682      4684      4679      4682      4685
      4683      4682      4684      4683      4682      4685      4684      4682      4685
      4682      4685      4686      4682      4685      4687      4682      4685      4688
      4686      4685      4687      4686      4685      4688      4687      4685      4688
      4685      4688      4689      4685      4688      4690      4685      4688      4691
      4689      4688      4690      4689      4688      4691      4690      4688      4691
      4688      4691      4692      4688      4691      4693      4688      4691      4694
      4692      4691      4693      4692      4691      4694      4693      4691      4694
      4691      4694      4695      4691      4694      4696      4691      4694      4697
      4695      4694      4696      4695      4694      4697      4696      4694      4697
      4694      4697      4698      4694      4697      4699      4698      4697      4699
      4697      4699      4700      4697      4699      4701      4700      4699      4701
      4699      4701      4702      4699      4701      4703      4699      4701      4704
      4702      4701      4703      4702      4701      4704      4703      4701      4704
      4701      4704      4705      4701      4704      4706      4701      4704      4707
      4705      4704      4706      4705      4704      4707      4706      4704      4707
      4704      4707      4708      4704      4707      4709      4704      4707      4710
      4708      4707      4709      4708      4707      4710      4709      4707      4710
      4707      4710      4711      4707      4710      4712      4707      4710      4713
      4711      4710      4712      4711      4710      4713      4712      4710      4713
      4710      4713      4714      4710      4713      4715      4710      4713      4716
      4714      4713      4715      4714      4713      4716      4715      4713      4716
      4713      4716      4717      4713      4716      4718      4713      4716      4719
      4717      4716      4718      4717      4716      4719      4718      4716      4719
      4716      4719      4720      4716      4719      4721      4716      4719      4722
      4720      4719      4721      4720      4719      4722      4721      4719      4722
      4719      4722      4723      4719      4722      4724      4719      4722      4725
      4723      4722      4724      4723      4722      4725      4724      4722      4725
      4676      4726      4727      4676      4726      4728      4676      4726      4729
      4727      4726      4728      4727      4726      4729      4728      4726      4729
      4726      4729      4730      4726      4729      4731      4726      4729      4732
      4730      4729      4731      4730      4729      4732      4731      4729      4732
      4729      4732      4733      4729      4732      4734      4729      4732      4735
      4733      4732      4734      4733      4732      4735      4734      4732      4735
      4732      4735      4736      4732      4735      4737      4732      4735      4738
      4736      4735      4737      4736      4735      4738      4737      4735      4738
      4735      4738      4739      4735      4738      4740      4735      4738      4741
      4739      4738      4740      4739      4738      4741      4740      4738      4741
      4738      4741      4742      4738      4741      4743      4738      4741      4744
      4742      4741      4743      4742      4741      4744      4743      4741      4744
      4741      4744      4745      4741      4744      4746      4741      4744      4747
      4745      4744      4746      4745      4744      4747      4746      4744      4747
      4744      4747      4748      4744      4747      4749      4744      4747      4750
      4748      4747      4749      4748      4747      4750      4749      4747      4750
      4747      4750      4751      4747      4750      4752      4747      4750      4753
      4751      4750      4752      4751      4750      4753      4752      4750      4753
      4750      4753      4754      4750      4753      4755      4750      4753      4756
      4754      4753      4755      4754      4753      4756      4755      4753      4756
      4753      4756      4757      4753      4756      4758      4753      4756      4759
      4757      4756      4758      4757      4756      4759      4758      4756      4759
      4756      4759      4760      4756      4759      4761      4756      4759      4762
      4760      4759      4761      4760      4759      4762      4761      4759      4762
      4759      4762      4763      4759      4762      4764      4759      4762      4765
      4763      4762      4764      4763      4762      4765      4764      4762      4765
      4762      4765      4766      4762      4765      4767      4762      4765      4768
      4766      4765      4767      4766      4765      4768      4767      4765      4768
      4770      4769      4773      4770      4769      4777      4770      4769      4781
      4773      4769      4777      4773      4769      4781      4777      4769      4781
      4769      4770      4771      4769      4770      4772      4769      4770      4785
      4771      4770      4772      4771      4770      4785      4772      4770      4785
      4769      4773      4774      4769      4773      4775      4769      4773      4776
      4774      4773      4775      4774      4773      4776      4775      4773      4776
      4769      4777      4778      4769      4777      4779      4769      4777      4780
      4778      4777      4779      4778      4777      4780      4779      4777      4780
      4769      4781      4782      4769      4781      4783      4769      4781      4784
      4782      4781      4783      4782      4781      4784      4783      4781      4784
      4770      4785      4786      4770      4785      4787      4770      4785      4791
      4786      4785      4787      4786      4785      4791      4787      4785      4791
      4789      4788      4790      4789      4788      4791      4789      4788      4792
      4790      4788      4791      4790      4788      4792      4791      4788      4792
      4785      4791      4788      4788      4792      4793      4792      4793      4794
      4792      4793      4795      4792      4793      4796      4794      4793      4795
      4794      4793      4796      4795      4793      4796      4793      4796      4797
      4793      4796      4798      4793      4796      4804      4797      4796      4798
      4797      4796      4804      4798      4796      4804      4796      4798      4799
      4798      4799      4800      4798      4799      4801      4800      4799      4801
      4799      4801      4802      4799      4801      4803      4799      4801      4813
      4802      4801      4803      4802      4801      4813      4803      4801      4813
      4796      4804      4805      4796      4804      4806      4796      4804      4807
      4805      4804      4806      4805      4804      4807      4806      4804      4807
      4804      4807      4808      4807      4808      4809      4807      4808      4810
      4809      4808      4810      4808      4810      4811      4808      4810      4812
      4808      4810      4860      4811      4810      4812      4811      4810      4860
      4812      4810      4860      4801      4813      4814      4801      4813      4815
      4801      4813      4816      4814      4813      4815      4814      4813      4816
      4815      4813      4816      4813      4816      4817      4813      4816      4818
      4813      4816      4819      4817      4816      4818      4817      4816      4819
      4818      4816      4819      4816      4819      4820      4816      4819      4821
      4816      4819      4822      4820      4819      4821      4820      4819      4822
      4821      4819      4822      4819      4822      4823      4819      4822      4824
      4819      4822      4825      4823      4822      4824      4823      4822      4825
      4824      4822      4825      4822      4825      4826      4822      4825      4827
      4822      4825      4828      4826      4825      4827      4826      4825      4828
      4827      4825      4828      4825      4828      4829      4825      4828      4830
      4825      4828      4831      4829      4828      4830      4829      4828      4831
      4830      4828      4831      4828      4831      4832      4828      4831      4833
      4832      4831      4833      4831      4833      4834      4831      4833      4835
      4834      4833      4835      4833      4835      4836      4833      4835      4837
      4833      4835      4838      4836      4835      4837      4836      4835      4838
      4837      4835      4838      4835      4838      4839      4835      4838      4840
      4835      4838      4841      4839      4838      4840      4839      4838      4841
      4840      4838      4841      4838      4841      4842      4838      4841      4843
      4838      4841      4844      4842      4841      4843      4842      4841      4844
      4843      4841      4844      4841      4844      4845      4841      4844      4846
      4841      4844      4847      4845      4844      4846      4845      4844      4847
      4846      4844      4847      4844      4847      4848      4844      4847      4849
      4844      4847      4850      4848      4847      4849      4848      4847      4850
      4849      4847      4850      4847      4850      4851      4847      4850      4852
      4847      4850      4853      4851      4850      4852      4851      4850      4853
      4852      4850      4853      4850      4853      4854      4850      4853      4855
      4850      4853      4856      4854      4853      4855      4854      4853      4856
      4855      4853      4856      4853      4856      4857      4853      4856      4858
      4853      4856      4859      4857      4856      4858      4857      4856      4859
      4858      4856      4859      4810      4860      4861      4810      4860      4862
      4810      4860      4863      4861      4860      4862      4861      4860      4863
      4862      4860      4863      4860      4863      4864      4860      4863      4865
      4860      4863      4866      4864      4863      4865      4864      4863      4866
      4865      4863      4866      4863      4866      4867      4863      4866      4868
      4863      4866      4869      4867      4866      4868      4867      4866      4869
      4868      4866      4869      4866      4869      4870      4866      4869      4871
      4866      4869      4872      4870      4869      4871      4870      4869      4872
      4871      4869      4872      4869      4872      4873      4869      4872      4874
      4869      4872      4875      4873      4872      4874      4873      4872      4875
      4874      4872      4875      4872      4875      4876      4872      4875      4877
      4872      4875      4878      4876      4875      4877      4876      4875      4878
      4877      4875      4878      4875      4878      4879      4875      4878      4880
      4875      4878      4881      4879      4878      4880      4879      4878      4881
      4880      4878      4881      4878      4881      4882      4878      4881      4883
      4878      4881      4884      4882      4881      4883      4882      4881      4884
      4883      4881      4884      4881      4884      4885      4881      4884      4886
      4881      4884      4887      4885      4884      4886      4885      4884      4887
      4886      4884      4887      4884      4887      4888      4884      4887      4889
      4884      4887      4890      4888      4887      4889      4888      4887      4890
      4889      4887      4890      4887      4890      4891      4887      4890      4892
      4887      4890      4893      4891      4890      4892      4891      4890      4893
      4892      4890      4893      4890      4893      4894      4890      4893      4895
      4890      4893      4896      4894      4893      4895      4894      4893      4896
      4895      4893      4896      4893      4896      4897      4893      4896      4898
      4893      4896      4899      4897      4896      4898      4897      4896      4899
      4898      4896      4899      4896      4899      4900      4896      4899      4901
      4896      4899      4902      4900      4899      4901      4900      4899      4902
      4901      4899      4902      4904      4903      4907      4904      4903      4911
      4904      4903      4915      4907      4903      4911      4907      4903      4915
      4911      4903      4915      4903      4904      4905      4903      4904      4906
      4903      4904      4919      4905      4904      4906      4905      4904      4919
      4906      4904      4919      4903      4907      4908      4903      4907      4909
      4903      4907      4910      4908      4907      4909      4908      4907      4910
      4909      4907      4910      4903      4911      4912      4903      4911      4913
      4903      4911      4914      4912      4911      4913      4912      4911      4914
      4913      4911      4914      4903      4915      4916      4903      4915      4917
      4903      4915      4918      4916      4915      4917      4916      4915      4918
      4917      4915      4918      4904      4919      4920      4904      4919      4921
      4904      4919      4925      4920      4919      4921      4920      4919      4925
      4921      4919      4925      4923      4922      4924      4923      4922      4925
      4923      4922      4926      4924      4922      4925      4924      4922      4926
      4925      4922      4926      4919      4925      4922      4922      4926      4927
      4926      4927      4928      4926      4927      4929      4926      4927      4930
      4928      4927      4929      4928      4927      4930      4929      4927      4930
      4927      4930      4931      4927      4930      4932      4927      4930      4938
      4931      4930      4932      4931      4930      4938      4932      4930      4938
      4930      4932      4933      4932      4933      4934      4932      4933      4935
      4934      4933      4935      4933      4935      4936      4933      4935      4937
      4933      4935      4947      4936      4935      4937      4936      4935      4947
      4937      4935      4947      4930      4938      4939      4930      4938      4940
      4930      4938      4941      4939      4938      4940      4939      4938      4941
      4940      4938      4941      4938      4941      4942      4941      4942      4943
      4941      4942      4944      4943      4942      4944      4942      4944      4945
      4942      4944      4946      4942      4944      4994      4945      4944      4946
      4945      4944      4994      4946      4944      4994      4935      4947      4948
      4935      4947      4949      4935      4947      4950      4948      4947      4949
      4948      4947      4950      4949      4947      4950      4947      4950      4951
      4947      4950      4952      4947      4950      4953      4951      4950      4952
      4951      4950      4953      4952      4950      4953      4950      4953      4954
      4950      4953      4955      4950      4953      4956      4954      4953      4955
      4954      4953      4956      4955      4953      4956      4953      4956      4957
      4953      4956      4958      4953      4956      4959      4957      4956      4958
      4957      4956      4959      4958      4956      4959      4956      4959      4960
      4956      4959      4961      4956      4959      4962      4960      4959      4961
      4960      4959      4962      4961      4959      4962      4959      4962      4963
      4959      4962      4964      4959      4962      4965      4963      4962      4964
      4963      4962      4965      4964      4962      4965      4962      4965      4966
      4962      4965      4967      4966      4965      4967      4965      4967      4968
      4965      4967      4969      4968      4967      4969      4967      4969      4970
      4967      4969      4971      4967      4969      4972      4970      4969      4971
      4970      4969      4972      4971      4969      4972      4969      4972      4973
      4969      4972      4974      4969      4972      4975      4973      4972      4974
      4973      4972      4975      4974      4972      4975      4972      4975      4976
      4972      4975      4977      4972      4975      4978      4976      4975      4977
      4976      4975      4978      4977      4975      4978      4975      4978      4979
      4975      4978      4980      4975      4978      4981      4979      4978      4980
      4979      4978      4981      4980      4978      4981      4978      4981      4982
      4978      4981      4983      4978      4981      4984      4982      4981      4983
      4982      4981      4984      4983      4981      4984      4981      4984      4985
      4981      4984      4986      4981      4984      4987      4985      4984      4986
      4985      4984      4987      4986      4984      4987      4984      4987      4988
      4984      4987      4989      4984      4987      4990      4988      4987      4989
      4988      4987      4990      4989      4987      4990      4987      4990      4991
      4987      4990      4992      4987      4990      4993      4991      4990      4992
      4991      4990      4993      4992      4990      4993      4944      4994      4995
      4944      4994      4996      4944      4994      4997      4995      4994      4996
      4995      4994      4997      4996      4994      4997      4994      4997      4998
      4994      4997      4999      4994      4997      5000      4998      4997      4999
      4998      4997      5000      4999      4997      5000      4997      5000      5001
      4997      5000      5002      4997      5000      5003      5001      5000      5002
      5001      5000      5003      5002      5000      5003      5000      5003      5004
      5000      5003      5005      5000      5003      5006      5004      5003      5005
      5004      5003      5006      5005      5003      5006      5003      5006      5007
      5003      5006      5008      5003      5006      5009      5007      5006      5008
      5007      5006      5009      5008      5006      5009      5006      5009      5010
      5006      5009      5011      5006      5009      5012      5010      5009      5011
      5010      5009      5012      5011      5009      5012      5009      5012      5013
      5009      5012      5014      5009      5012      5015      5013      5012      5014
      5013      5012      5015      5014      5012      5015      5012      5015      5016
      5012      5015      5017      5012      5015      5018      5016      5015      5017
      5016      5015      5018      5017      5015      5018      5015      5018      5019
      5015      5018      5020      5015      5018      5021      5019      5018      5020
      5019      5018      5021      5020      5018      5021      5018      5021      5022
      5018      5021      5023      5018      5021      5024      5022      5021      5023
      5022      5021      5024      5023      5021      5024      5021      5024      5025
      5021      5024      5026      5021      5024      5027      5025      5024      5026
      5025      5024      5027      5026      5024      5027      5024      5027      5028
      5024      5027      5029      5024      5027      5030      5028      5027      5029
      5028      5027      5030      5029      5027      5030      5027      5030      5031
      5027      5030      5032      5027      5030      5033      5031      5030      5032
      5031      5030      5033      5032      5030      5033      5030      5033      5034
      5030      5033      5035      5030      5033      5036      5034      5033      5035
      5034      5033      5036      5035      5033      5036      5038      5037      5041
      5038      5037      5045      5038      5037      5049      5041      5037      5045
      5041      5037      5049      5045      5037      5049      5037      5038      5039
      5037      5038      5040      5037      5038      5053      5039      5038      5040
      5039      5038      5053      5040      5038      5053      5037      5041      5042
      5037      5041      5043      5037      5041      5044      5042      5041      5043
      5042      5041      5044      5043      5041      5044      5037      5045      5046
      5037      5045      5047      5037      5045      5048      5046      5045      5047
      5046      5045      5048      5047      5045      5048      5037      5049      5050
      5037      5049      5051      5037      5049      5052      5050      5049      5051
      5050      5049      5052      5051      5049      5052      5038      5053      5054
      5038      5053      5055      5038      5053      5059      5054      5053      5055
      5054      5053      5059      5055      5053      5059      5057      5056      5058
      5057      5056      5059      5057      5056      5060      5058      5056      5059
      5058      5056      5060      5059      5056      5060      5053      5059      5056
      5056      5060      5061      5060      5061      5062      5060      5061      5063
      5060      5061      5064      5062      5061      5063      5062      5061      5064
      5063      5061      5064      5061      5064      5065      5061      5064      5066
      5061      5064      5072      5065      5064      5066      5065      5064      5072
      5066      5064      5072      5064      5066      5067      5066      5067      5068
      5066      5067      5069      5068      5067      5069      5067      5069      5070
      5067      5069      5071      5067      5069      5081      5070      5069      5071
      5070      5069      5081      5071      5069      5081      5064      5072      5073
      5064      5072      5074      5064      5072      5075      5073      5072      5074
      5073      5072      5075      5074      5072      5075      5072      5075      5076
      5075      5076      5077      5075      5076      5078      5077      5076      5078
      5076      5078      5079      5076      5078      5080      5076      5078      5128
      5079      5078      5080      5079      5078      5128      5080      5078      5128
      5069      5081      5082      5069      5081      5083      5069      5081      5084
      5082      5081      5083      5082      5081      5084      5083      5081      5084
      5081      5084      5085      5081      5084      5086      5081      5084      5087
      5085      5084      5086      5085      5084      5087      5086      5084      5087
      5084      5087      5088      5084      5087      5089      5084      5087      5090
      5088      5087      5089      5088      5087      5090      5089      5087      5090
      5087      5090      5091      5087      5090      5092      5087      5090      5093
      5091      5090      5092      5091      5090      5093      5092      5090      5093
      5090      5093      5094      5090      5093      5095      5090      5093      5096
      5094      5093      5095      5094      5093      5096      5095      5093      5096
      5093      5096      5097      5093      5096      5098      5093      5096      5099
      5097      5096      5098      5097      5096      5099      5098      5096      5099
      5096      5099      5100      5096      5099      5101      5100      5099      5101
      5099      5101      5102      5099      5101      5103      5102      5101      5103
      5101      5103      5104      5101      5103      5105      5101      5103      5106
      5104      5103      5105      5104      5103      5106      5105      5103      5106
      5103      5106      5107      5103      5106      5108      5103      5106      5109
      5107      5106      5108      5107      5106      5109      5108      5106      5109
      5106      5109      5110      5106      5109      5111      5106      5109      5112
      5110      5109      5111      5110      5109      5112      5111      5109      5112
      5109      5112      5113      5109      5112      5114      5109      5112      5115
      5113      5112      5114      5113      5112      5115      5114      5112      5115
      5112      5115      5116      5112      5115      5117      5112      5115      5118
      5116      5115      5117      5116      5115      5118      5117      5115      5118
      5115      5118      5119      5115      5118      5120      5115      5118      5121
      5119      5118      5120      5119      5118      5121      5120      5118      5121
      5118      5121      5122      5118      5121      5123      5118      5121      5124
      5122      5121      5123      5122      5121      5124      5123      5121      5124
      5121      5124      5125      5121      5124      5126      5121      5124      5127
      5125      5124      5126      5125      5124      5127      5126      5124      5127
      5078      5128      5129      5078      5128      5130      5078      5128      5131
      5129      5128      5130      5129      5128      5131      5130      5128      5131
      5128      5131      5132      5128      5131      5133      5128      5131      5134
      5132      5131      5133      5132      5131      5134      5133      5131      5134
      5131      5134      5135      5131      5134      5136      5131      5134      5137
      5135      5134      5136      5135      5134      5137      5136      5134      5137
      5134      5137      5138      5134      5137      5139      5134      5137      5140
      5138      5137      5139      5138      5137      5140      5139      5137      5140
      5137      5140      5141      5137      5140      5142      5137      5140      5143
      5141      5140      5142      5141      5140      5143      5142      5140      5143
      5140      5143      5144      5140      5143      5145      5140      5143      5146
      5144      5143      5145      5144      5143      5146      5145      5143      5146
      5143      5146      5147      5143      5146      5148      5143      5146      5149
      5147      5146      5148      5147      5146      5149      5148      5146      5149
      5146      5149      5150      5146      5149      5151      5146      5149      5152
      5150      5149      5151      5150      5149      5152      5151      5149      5152
      5149      5152      5153      5149      5152      5154      5149      5152      5155
      5153      5152      5154      5153      5152      5155      5154      5152      5155
      5152      5155      5156      5152      5155      5157      5152      5155      5158
      5156      5155      5157      5156      5155      5158      5157      5155      5158
      5155      5158      5159      5155      5158      5160      5155      5158      5161
      5159      5158      5160      5159      5158      5161      5160      5158      5161
      5158      5161      5162      5158      5161      5163      5158      5161      5164
      5162      5161      5163      5162      5161      5164      5163      5161      5164
      5161      5164      5165      5161      5164      5166      5161      5164      5167
      5165      5164      5166      5165      5164      5167      5166      5164      5167
      5164      5167      5168      5164      5167      5169      5164      5167      5170
      5168      5167      5169      5168      5167      5170      5169      5167      5170
      5172      5171      5175      5172      5171      5179      5172      5171      5183
      5175      5171      5179      5175      5171      5183      5179      5171      5183
      5171      5172      5173      5171      5172      5174      5171      5172      5187
      5173      5172      5174      5173      5172      5187      5174      5172      5187
      5171      5175      5176      5171      5175      5177      5171      5175      5178
      5176      5175      5177      5176      5175      5178      5177      5175      5178
      5171      5179      5180      5171      5179      5181      5171      5179      5182
      5180      5179      5181      5180      5179      5182      5181      5179      5182
      5171      5183      5184      5171      5183      5185      5171      5183      5186
      5184      5183      5185      5184      5183      5186      5185      5183      5186
      5172      5187      5188      5172      5187      5189      5172      5187      5193
      5188      5187      5189      5188      5187      5193      5189      5187      5193
      5191      5190      5192      5191      5190      5193      5191      5190      5194
      5192      5190      5193      5192      5190      5194      5193      5190      5194
      5187      5193      5190      5190      5194      5195      5194      5195      5196
      5194      5195      5197      5194      5195      5198      5196      5195      5197
      5196      5195      5198      5197      5195      5198      5195      5198      5199
      5195      5198      5200      5195      5198      5206      5199      5198      5200
      5199      5198      5206      5200      5198      5206      5198      5200      5201
      5200      5201      5202      5200      5201      5203      5202      5201      5203
      5201      5203      5204      5201      5203      5205      5201      5203      5215
      5204      5203      5205      5204      5203      5215      5205      5203      5215
      5198      5206      5207      5198      5206      5208      5198      5206      5209
      5207      5206      5208      5207      5206      5209      5208      5206      5209
      5206      5209      5210      5209      5210      5211      5209      5210      5212
      5211      5210      5212      5210      5212      5213      5210      5212      5214
      5210      5212      5262      5213      5212      5214      5213      5212      5262
      5214      5212      5262      5203      5215      5216      5203      5215      5217
      5203      5215      5218      5216      5215      5217      5216      5215      5218
      5217      5215      5218      5215      5218      5219      5215      5218      5220
      5215      5218      5221      5219      5218      5220      5219      5218      5221
      5220      5218      5221      5218      5221      5222      5218      5221      5223
      5218      5221      5224      5222      5221      5223      5222      5221      5224
      5223      5221      5224      5221      5224      5225      5221      5224      5226
      5221      5224      5227      5225      5224      5226      5225      5224      5227
      5226      5224      5227      5224      5227      5228      5224      5227      5229
      5224      5227      5230      5228      5227      5229      5228      5227      5230
      5229      5227      5230      5227      5230      5231      5227      5230      5232
      5227      5230      5233      5231      5230      5232      5231      5230      5233
      5232      5230      5233      5230      5233      5234      5230      5233      5235
      5234      5233      5235      5233      5235      5236      5233      5235      5237
      5236      5235      5237      5235      5237      5238      5235      5237      5239
      5235      5237      5240      5238      5237      5239      5238      5237      5240
      5239      5237      5240      5237      5240      5241      5237      5240      5242
      5237      5240      5243      5241      5240      5242      5241      5240      5243
      5242      5240      5243      5240      5243      5244      5240      5243      5245
      5240      5243      5246      5244      5243      5245      5244      5243      5246
      5245      5243      5246      5243      5246      5247      5243      5246      5248
      5243      5246      5249      5247      5246      5248      5247      5246      5249
      5248      5246      5249      5246      5249      5250      5246      5249      5251
      5246      5249      5252      5250      5249      5251      5250      5249      5252
      5251      5249      5252      5249      5252      5253      5249      5252      5254
      5249      5252      5255      5253      5252      5254      5253      5252      5255
      5254      5252      5255      5252      5255      5256      5252      5255      5257
      5252      5255      5258      5256      5255      5257      5256      5255      5258
      5257      5255      5258      5255      5258      5259      5255      5258      5260
      5255      5258      5261      5259      5258      5260      5259      5258      5261
      5260      5258      5261      5212      5262      5263      5212      5262      5264
      5212      5262      5265      5263      5262      5264      5263      5262      5265
      5264      5262      5265      5262      5265      5266      5262      5265      5267
      5262      5265      5268      5266      5265      5267      5266      5265      5268
      5267      5265      5268      5265      5268      5269      5265      5268      5270
      5265      5268      5271      5269      5268      5270      5269      5268      5271
      5270      5268      5271      5268      5271      5272      5268      5271      5273
      5268      5271      5274      5272      5271      5273      5272      5271      5274
      5273      5271      5274      5271      5274      5275      5271      5274      5276
      5271      5274      5277      5275      5274      5276      5275      5274      5277
      5276      5274      5277      5274      5277      5278      5274      5277      5279
      5274      5277      5280      5278      5277      5279      5278      5277      5280
      5279      5277      5280      5277      5280      5281      5277      5280      5282
      5277      5280      5283      5281      5280      5282      5281      5280      5283
      5282      5280      5283      5280      5283      5284      5280      5283      5285
      5280      5283      5286      5284      5283      5285      5284      5283      5286
      5285      5283      5286      5283      5286      5287      5283      5286      5288
      5283      5286      5289      5287      5286      5288      5287      5286      5289
      5288      5286      5289      5286      5289      5290      5286      5289      5291
      5286      5289      5292      5290      5289      5291      5290      5289      5292
      5291      5289      5292      5289      5292      5293      5289      5292      5294
      5289      5292      5295      5293      5292      5294      5293      5292      5295
      5294      5292      5295      5292      5295      5296      5292      5295      5297
      5292      5295      5298      5296      5295      5297      5296      5295      5298
      5297      5295      5298      5295      5298      5299      5295      5298      5300
      5295      5298      5301      5299      5298      5300      5299      5298      5301
      5300      5298      5301      5298      5301      5302      5298      5301      5303
      5298      5301      5304      5302      5301      5303      5302      5301      5304
      5303      5301      5304      5306      5305      5309      5306      5305      5313
      5306      5305      5317      5309      5305      5313      5309      5305      5317
      5313      5305      5317      5305      5306      5307      5305      5306      5308
      5305      5306      5321      5307      5306      5308      5307      5306      5321
      5308      5306      5321      5305      5309      5310      5305      5309      5311
      5305      5309      5312      5310      5309      5311      5310      5309      5312
      5311      5309      5312      5305      5313      5314      5305      5313      5315
      5305      5313      5316      5314      5313      5315      5314      5313      5316
      5315      5313      5316      5305      5317      5318      5305      5317      5319
      5305      5317      5320      5318      5317      5319      5318      5317      5320
      5319      5317      5320      5306      5321      5322      5306      5321      5323
      5306      5321      5327      5322      5321      5323      5322      5321      5327
      5323      5321      5327      5325      5324      5326      5325      5324      5327
      5325      5324      5328      5326      5324      5327      5326      5324      5328
      5327      5324      5328      5321      5327      5324      5324      5328      5329
      5328      5329      5330      5328      5329      5331      5328      5329      5332
      5330      5329      5331      5330      5329      5332      5331      5329      5332
      5329      5332      5333      5329      5332      5334      5329      5332      5340
      5333      5332      5334      5333      5332      5340      5334      5332      5340
      5332      5334      5335      5334      5335      5336      5334      5335      5337
      5336      5335      5337      5335      5337      5338      5335      5337      5339
      5335      5337      5349      5338      5337      5339      5338      5337      5349
      5339      5337      5349      5332      5340      5341      5332      5340      5342
      5332      5340      5343      5341      5340      5342      5341      5340      5343
      5342      5340      5343      5340      5343      5344      5343      5344      5345
      5343      5344      5346      5345      5344      5346      5344      5346      5347
      5344      5346      5348      5344      5346      5396      5347      5346      5348
      5347      5346      5396      5348      5346      5396      5337      5349      5350
      5337      5349      5351      5337      5349      5352      5350      5349      5351
      5350      5349      5352      5351      5349      5352      5349      5352      5353
      5349      5352      5354      5349      5352      5355      5353      5352      5354
      5353      5352      5355      5354      5352      5355      5352      5355      5356
      5352      5355      5357      5352      5355      5358      5356      5355      5357
      5356      5355      5358      5357      5355      5358      5355      5358      5359
      5355      5358      5360      5355      5358      5361      5359      5358      5360
      5359      5358      5361      5360      5358      5361      5358      5361      5362
      5358      5361      5363      5358      5361      5364      5362      5361      5363
      5362      5361      5364      5363      5361      5364      5361      5364      5365
      5361      5364      5366      5361      5364      5367      5365      5364      5366
      5365      5364      5367      5366      5364      5367      5364      5367      5368
      5364      5367      5369      5368      5367      5369      5367      5369      5370
      5367      5369      5371      5370      5369      5371      5369      5371      5372
      5369      5371      5373      5369      5371      5374      5372      5371      5373
      5372      5371      5374      5373      5371      5374      5371      5374      5375
      5371      5374      5376      5371      5374      5377      5375      5374      5376
      5375      5374      5377      5376      5374      5377      5374      5377      5378
      5374      5377      5379      5374      5377      5380      5378      5377      5379
      5378      5377      5380      5379      5377      5380      5377      5380      5381
      5377      5380      5382      5377      5380      5383      5381      5380      5382
      5381      5380      5383      5382      5380      5383      5380      5383      5384
      5380      5383      5385      5380      5383      5386      5384      5383      5385
      5384      5383      5386      5385      5383      5386      5383      5386      5387
      5383      5386      5388      5383      5386      5389      5387      5386      5388
      5387      5386      5389      5388      5386      5389      5386      5389      5390
      5386      5389      5391      5386      5389      5392      5390      5389      5391
      5390      5389      5392      5391      5389      5392      5389      5392      5393
      5389      5392      5394      5389      5392      5395      5393      5392      5394
      5393      5392      5395      5394      5392      5395      5346      5396      5397
      5346      5396      5398      5346      5396      5399      5397      5396      5398
      5397      5396      5399      5398      5396      5399      5396      5399      5400
      5396      5399      5401      5396      5399      5402      5400      5399      5401
      5400      5399      5402      5401      5399      5402      5399      5402      5403
      5399      5402      5404      5399      5402      5405      5403      5402      5404
      5403      5402      5405      5404      5402      5405      5402      5405      5406
      5402      5405      5407      5402      5405      5408      5406      5405      5407
      5406      5405      5408      5407      5405      5408      5405      5408      5409
      5405      5408      5410      5405      5408      5411      5409      5408      5410
      5409      5408      5411      5410      5408      5411      5408      5411      5412
      5408      5411      5413      5408      5411      5414      5412      5411      5413
      5412      5411      5414      5413      5411      5414      5411      5414      5415
      5411      5414      5416      5411      5414      5417      5415      5414      5416
      5415      5414      5417      5416      5414      5417      5414      5417      5418
      5414      5417      5419      5414      5417      5420      5418      5417      5419
      5418      5417      5420      5419      5417      5420      5417      5420      5421
      5417      5420      5422      5417      5420      5423      5421      5420      5422
      5421      5420      5423      5422      5420      5423      5420      5423      5424
      5420      5423      5425      5420      5423      5426      5424      5423      5425
      5424      5423      5426      5425      5423      5426      5423      5426      5427
      5423      5426      5428      5423      5426      5429      5427      5426      5428
      5427      5426      5429      5428      5426      5429      5426      5429      5430
      5426      5429      5431      5426      5429      5432      5430      5429      5431
      5430      5429      5432      5431      5429      5432      5429      5432      5433
      5429      5432      5434      5429      5432      5435      5433      5432      5434
      5433      5432      5435      5434      5432      5435      5432      5435      5436
      5432      5435      5437      5432      5435      5438      5436      5435      5437
      5436      5435      5438      5437      5435      5438      5440      5439      5443
      5440      5439      5447      5440      5439      5451      5443      5439      5447
      5443      5439      5451      5447      5439      5451      5439      5440      5441
      5439      5440      5442      5439      5440      5455      5441      5440      5442
      5441      5440      5455      5442      5440      5455      5439      5443      5444
      5439      5443      5445      5439      5443      5446      5444      5443      5445
      5444      5443      5446      5445      5443      5446      5439      5447      5448
      5439      5447      5449      5439      5447      5450      5448      5447      5449
      5448      5447      5450      5449      5447      5450      5439      5451      5452
      5439      5451      5453      5439      5451      5454      5452      5451      5453
      5452      5451      5454      5453      5451      5454      5440      5455      5456
      5440      5455      5457      5440      5455      5461      5456      5455      5457
      5456      5455      5461      5457      5455      5461      5459      5458      5460
      5459      5458      5461      5459      5458      5462      5460      5458      5461
      5460      5458      5462      5461      5458      5462      5455      5461      5458
      5458      5462      5463      5462      5463      5464      5462      5463      5465
      5462      5463      5466      5464      5463      5465      5464      5463      5466
      5465      5463      5466      5463      5466      5467      5463      5466      5468
      5463      5466      5474      5467      5466      5468      5467      5466      5474
      5468      5466      5474      5466      5468      5469      5468      5469      5470
      5468      5469      5471      5470      5469      5471      5469      5471      5472
      5469      5471      5473      5469      5471      5483      5472      5471      5473
      5472      5471      5483      5473      5471      5483      5466      5474      5475
      5466      5474      5476      5466      5474      5477      5475      5474      5476
      5475      5474      5477      5476      5474      5477      5474      5477      5478
      5477      5478      5479      5477      5478      5480      5479      5478      5480
      5478      5480      5481      5478      5480      5482      5478      5480      5530
      5481      5480      5482      5481      5480      5530      5482      5480      5530
      5471      5483      5484      5471      5483      5485      5471      5483      5486
      5484      5483      5485      5484      5483      5486      5485      5483      5486
      5483      5486      5487      5483      5486      5488      5483      5486      5489
      5487      5486      5488      5487      5486      5489      5488      5486      5489
      5486      5489      5490      5486      5489      5491      5486      5489      5492
      5490      5489      5491      5490      5489      5492      5491      5489      5492
      5489      5492      5493      5489      5492      5494      5489      5492      5495
      5493      5492      5494      5493      5492      5495      5494      5492      5495
      5492      5495      5496      5492      5495      5497      5492      5495      5498
      5496      5495      5497      5496      5495      5498      5497      5495      5498
      5495      5498      5499      5495      5498      5500      5495      5498      5501
      5499      5498      5500      5499      5498      5501      5500      5498      5501
      5498      5501      5502      5498      5501      5503      5502      5501      5503
      5501      5503      5504      5501      5503      5505      5504      5503      5505
      5503      5505      5506      5503      5505      5507      5503      5505      5508
      5506      5505      5507      5506      5505      5508      5507      5505      5508
      5505      5508      5509      5505      5508      5510      5505      5508      5511
      5509      5508      5510      5509      5508      5511      5510      5508      5511
      5508      5511      5512      5508      5511      5513      5508      5511      5514
      5512      5511      5513      5512      5511      5514      5513      5511      5514
      5511      5514      5515      5511      5514      5516      5511      5514      5517
      5515      5514      5516      5515      5514      5517      5516      5514      5517
      5514      5517      5518      5514      5517      5519      5514      5517      5520
      5518      5517      5519      5518      5517      5520      5519      5517      5520
      5517      5520      5521      5517      5520      5522      5517      5520      5523
      5521      5520      5522      5521      5520      5523      5522      5520      5523
      5520      5523      5524      5520      5523      5525      5520      5523      5526
      5524      5523      5525      5524      5523      5526      5525      5523      5526
      5523      5526      5527      5523      5526      5528      5523      5526      5529
      5527      5526      5528      5527      5526      5529      5528      5526      5529
      5480      5530      5531      5480      5530      5532      5480      5530      5533
      5531      5530      5532      5531      5530      5533      5532      5530      5533
      5530      5533      5534      5530      5533      5535      5530      5533      5536
      5534      5533      5535      5534      5533      5536      5535      5533      5536
      5533      5536      5537      5533      5536      5538      5533      5536      5539
      5537      5536      5538      5537      5536      5539      5538      5536      5539
      5536      5539      5540      5536      5539      5541      5536      5539      5542
      5540      5539      5541      5540      5539      5542      5541      5539      5542
      5539      5542      5543      5539      5542      5544      5539      5542      5545
      5543      5542      5544      5543      5542      5545      5544      5542      5545
      5542      5545      5546      5542      5545      5547      5542      5545      5548
      5546      5545      5547      5546      5545      5548      5547      5545      5548
      5545      5548      5549      5545      5548      5550      5545      5548      5551
      5549      5548      5550      5549      5548      5551      5550      5548      5551
      5548      5551      5552      5548      5551      5553      5548      5551      5554
      5552      5551      5553      5552      5551      5554      5553      5551      5554
      5551      5554      5555      5551      5554      5556      5551      5554      5557
      5555      5554      5556      5555      5554      5557      5556      5554      5557
      5554      5557      5558      5554      5557      5559      5554      5557      5560
      5558      5557      5559      5558      5557      5560      5559      5557      5560
      5557      5560      5561      5557      5560      5562      5557      5560      5563
      5561      5560      5562      5561      5560      5563      5562      5560      5563
      5560      5563      5564      5560      5563      5565      5560      5563      5566
      5564      5563      5565      5564      5563      5566      5565      5563      5566
      5563      5566      5567      5563      5566      5568      5563      5566      5569
      5567      5566      5568      5567      5566      5569      5568      5566      5569
      5566      5569      5570      5566      5569      5571      5566      5569      5572
      5570      5569      5571      5570      5569      5572      5571      5569      5572
      5574      5573      5577      5574      5573      5581      5574      5573      5585
      5577      5573      5581      5577      5573      5585      5581      5573      5585
      5573      5574      5575      5573      5574      5576      5573      5574      5589
      5575      5574      5576      5575      5574      5589      5576      5574      5589
      5573      5577      5578      5573      5577      5579      5573      5577      5580
      5578      5577      5579      5578      5577      5580      5579      5577      5580
      5573      5581      5582      5573      5581      5583      5573      5581      5584
      5582      5581      5583      5582      5581      5584      5583      5581      5584
      5573      5585      5586      5573      5585      5587      5573      5585      5588
      5586      5585      5587      5586      5585      5588      5587      5585      5588
      5574      5589      5590      5574      5589      5591      5574      5589      5595
      5590      5589      5591      5590      5589      5595      5591      5589      5595
      5593      5592      5594      5593      5592      5595      5593      5592      5596
      5594      5592      5595      5594      5592      5596      5595      5592      5596
      5589      5595      5592      5592      5596      5597      5596      5597      5598
      5596      5597      5599      5596      5597      5600      5598      5597      5599
      5598      5597      5600      5599      5597      5600      5597      5600      5601
      5597      5600      5602      5597      5600      5608      5601      5600      5602
      5601      5600      5608      5602      5600      5608      5600      5602      5603
      5602      5603      5604      5602      5603      5605      5604      5603      5605
      5603      5605      5606      5603      5605      5607      5603      5605      5617
      5606      5605      5607      5606      5605      5617      5607      5605      5617
      5600      5608      5609      5600      5608      5610      5600      5608      5611
      5609      5608      5610      5609      5608      5611      5610      5608      5611
      5608      5611      5612      5611      5612      5613      5611      5612      5614
      5613      5612      5614      5612      5614      5615      5612      5614      5616
      5612      5614      5664      5615      5614      5616      5615      5614      5664
      5616      5614      5664      5605      5617      5618      5605      5617      5619
      5605      5617      5620      5618      5617      5619      5618      5617      5620
      5619      5617      5620      5617      5620      5621      5617      5620      5622
      5617      5620      5623      5621      5620      5622      5621      5620      5623
      5622      5620      5623      5620      5623      5624      5620      5623      5625
      5620      5623      5626      5624      5623      5625      5624      5623      5626
      5625      5623      5626      5623      5626      5627      5623      5626      5628
      5623      5626      5629      5627      5626      5628      5627      5626      5629
      5628      5626      5629      5626      5629      5630      5626      5629      5631
      5626      5629      5632      5630      5629      5631      5630      5629      5632
      5631      5629      5632      5629      5632      5633      5629      5632      5634
      5629      5632      5635      5633      5632      5634      5633      5632      5635
      5634      5632      5635      5632      5635      5636      5632      5635      5637
      5636      5635      5637      5635      5637      5638      5635      5637      5639
      5638      5637      5639      5637      5639      5640      5637      5639      5641
      5637      5639      5642      5640      5639      5641      5640      5639      5642
      5641      5639      5642      5639      5642      5643      5639      5642      5644
      5639      5642      5645      5643      5642      5644      5643      5642      5645
      5644      5642      5645      5642      5645      5646      5642      5645      5647
      5642      5645      5648      5646      5645      5647      5646      5645      5648
      5647      5645      5648      5645      5648      5649      5645      5648      5650
      5645      5648      5651      5649      5648      5650      5649      5648      5651
      5650      5648      5651      5648      5651      5652      5648      5651      5653
      5648      5651      5654      5652      5651      5653      5652      5651      5654
      5653      5651      5654      5651      5654      5655      5651      5654      5656
      5651      5654      5657      5655      5654      5656      5655      5654      5657
      5656      5654      5657      5654      5657      5658      5654      5657      5659
      5654      5657      5660      5658      5657      5659      5658      5657      5660
      5659      5657      5660      5657      5660      5661      5657      5660      5662
      5657      5660      5663      5661      5660      5662      5661      5660      5663
      5662      5660      5663      5614      5664      5665      5614      5664      5666
      5614      5664      5667      5665      5664      5666      5665      5664      5667
      5666      5664      5667      5664      5667      5668      5664      5667      5669
      5664      5667      5670      5668      5667      5669      5668      5667      5670
      5669      5667      5670      5667      5670      5671      5667      5670      5672
      5667      5670      5673      5671      5670      5672      5671      5670      5673
      5672      5670      5673      5670      5673      5674      5670      5673      5675
      5670      5673      5676      5674      5673      5675      5674      5673      5676
      5675      5673      5676      5673      5676      5677      5673      5676      5678
      5673      5676      5679      5677      5676      5678      5677      5676      5679
      5678      5676      5679      5676      5679      5680      5676      5679      5681
      5676      5679      5682      5680      5679      5681      5680      5679      5682
      5681      5679      5682      5679      5682      5683      5679      5682      5684
      5679      5682      5685      5683      5682      5684      5683      5682      5685
      5684      5682      5685      5682      5685      5686      5682      5685      5687
      5682      5685      5688      5686      5685      5687      5686      5685      5688
      5687      5685      5688      5685      5688      5689      5685      5688      5690
      5685      5688      5691      5689      5688      5690      5689      5688      5691
      5690      5688      5691      5688      5691      5692      5688      5691      5693
      5688      5691      5694      5692      5691      5693      5692      5691      5694
      5693      5691      5694      5691      5694      5695      5691      5694      5696
      5691      5694      5697      5695      5694      5696      5695      5694      5697
      5696      5694      5697      5694      5697      5698      5694      5697      5699
      5694      5697      5700      5698      5697      5699      5698      5697      5700
      5699      5697      5700      5697      5700      5701      5697      5700      5702
      5697      5700      5703      5701      5700      5702      5701      5700      5703
      5702      5700      5703      5700      5703      5704      5700      5703      5705
      5700      5703      5706      5704      5703      5705      5704      5703      5706
      5705      5703      5706      5708      5707      5711      5708      5707      5715
      5708      5707      5719      5711      5707      5715      5711      5707      5719
      5715      5707      5719      5707      5708      5709      5707      5708      5710
      5707      5708      5723      5709      5708      5710      5709      5708      5723
      5710      5708      5723      5707      5711      5712      5707      5711      5713
      5707      5711      5714      5712      5711      5713      5712      5711      5714
      5713      5711      5714      5707      5715      5716      5707      5715      5717
      5707      5715      5718      5716      5715      5717      5716      5715      5718
      5717      5715      5718      5707      5719      5720      5707      5719      5721
      5707      5719      5722      5720      5719      5721      5720      5719      5722
      5721      5719      5722      5708      5723      5724      5708      5723      5725
      5708      5723      5729      5724      5723      5725      5724      5723      5729
      5725      5723      5729      5727      5726      5728      5727      5726      5729
      5727      5726      5730      5728      5726      5729      5728      5726      5730
      5729      5726      5730      5723      5729      5726      5726      5730      5731
      5730      5731      5732      5730      5731      5733      5730      5731      5734
      5732      5731      5733      5732      5731      5734      5733      5731      5734
      5731      5734      5735      5731      5734      5736      5731      5734      5742
      5735      5734      5736      5735      5734      5742      5736      5734      5742
      5734      5736      5737      5736      5737      5738      5736      5737      5739
      5738      5737      5739      5737      5739      5740      5737      5739      5741
      5737      5739      5751      5740      5739      5741      5740      5739      5751
      5741      5739      5751      5734      5742      5743      5734      5742      5744
      5734      5742      5745      5743      5742      5744      5743      5742      5745
      5744      5742      5745      5742      5745      5746      5745      5746      5747
      5745      5746      5748      5747      5746      5748      5746      5748      5749
      5746      5748      5750      5746      5748      5798      5749      5748      5750
      5749      5748      5798      5750      5748      5798      5739      5751      5752
      5739      5751      5753      5739      5751      5754      5752      5751      5753
      5752      5751      5754      5753      5751      5754      5751      5754      5755
      5751      5754      5756      5751      5754      5757      5755      5754      5756
      5755      5754      5757      5756      5754      5757      5754      5757      5758
      5754      5757      5759      5754      5757      5760      5758      5757      5759
      5758      5757      5760      5759      5757      5760      5757      5760      5761
      5757      5760      5762      5757      5760      5763      5761      5760      5762
      5761      5760      5763      5762      5760      5763      5760      5763      5764
      5760      5763      5765      5760      5763      5766      5764      5763      5765
      5764      5763      5766      5765      5763      5766      5763      5766      5767
      5763      5766      5768      5763      5766      5769      5767      5766      5768
      5767      5766      5769      5768      5766      5769      5766      5769      5770
      5766      5769      5771      5770      5769      5771      5769      5771      5772
      5769      5771      5773      5772      5771      5773      5771      5773      5774
      5771      5773      5775      5771      5773      5776      5774      5773      5775
      5774      5773      5776      5775      5773      5776      5773      5776      5777
      5773      5776      5778      5773      5776      5779      5777      5776      5778
      5777      5776      5779      5778      5776      5779      5776      5779      5780
      5776      5779      5781      5776      5779      5782      5780      5779      5781
      5780      5779      5782      5781      5779      5782      5779      5782      5783
      5779      5782      5784      5779      5782      5785      5783      5782      5784
      5783      5782      5785      5784      5782      5785      5782      5785      5786
      5782      5785      5787      5782      5785      5788      5786      5785      5787
      5786      5785      5788      5787      5785      5788      5785      5788      5789
      5785      5788      5790      5785      5788      5791      5789      5788      5790
      5789      5788      5791      5790      5788      5791      5788      5791      5792
      5788      5791      5793      5788      5791      5794      5792      5791      5793
      5792      5791      5794      5793      5791      5794      5791      5794      5795
      5791      5794      5796      5791      5794      5797      5795      5794      5796
      5795      5794      5797      5796      5794      5797      5748      5798      5799
      5748      5798      5800      5748      5798      5801      5799      5798      5800
      5799      5798      5801      5800      5798      5801      5798      5801      5802
      5798      5801      5803      5798      5801      5804      5802      5801      5803
      5802      5801      5804      5803      5801      5804      5801      5804      5805
      5801      5804      5806      5801      5804      5807      5805      5804      5806
      5805      5804      5807      5806      5804      5807      5804      5807      5808
      5804      5807      5809      5804      5807      5810      5808      5807      5809
      5808      5807      5810      5809      5807      5810      5807      5810      5811
      5807      5810      5812      5807      5810      5813      5811      5810      5812
      5811      5810      5813      5812      5810      5813      5810      5813      5814
      5810      5813      5815      5810      5813      5816      5814      5813      5815
      5814      5813      5816      5815      5813      5816      5813      5816      5817
      5813      5816      5818      5813      5816      5819      5817      5816      5818
      5817      5816      5819      5818      5816      5819      5816      5819      5820
      5816      5819      5821      5816      5819      5822      5820      5819      5821
      5820      5819      5822      5821      5819      5822      5819      5822      5823
      5819      5822      5824      5819      5822      5825      5823      5822      5824
      5823      5822      5825      5824      5822      5825      5822      5825      5826
      5822      5825      5827      5822      5825      5828      5826      5825      5827
      5826      5825      5828      5827      5825      5828      5825      5828      5829
      5825      5828      5830      5825      5828      5831      5829      5828      5830
      5829      5828      5831      5830      5828      5831      5828      5831      5832
      5828      5831      5833      5828      5831      5834      5832      5831      5833
      5832      5831      5834      5833      5831      5834      5831      5834      5835
      5831      5834      5836      5831      5834      5837      5835      5834      5836
      5835      5834      5837      5836      5834      5837      5834      5837      5838
      5834      5837      5839      5834      5837      5840      5838      5837      5839
      5838      5837      5840      5839      5837      5840      5842      5841      5845
      5842      5841      5849      5842      5841      5853      5845      5841      5849
      5845      5841      5853      5849      5841      5853      5841      5842      5843
      5841      5842      5844      5841      5842      5857      5843      5842      5844
      5843      5842      5857      5844      5842      5857      5841      5845      5846
      5841      5845      5847      5841      5845      5848      5846      5845      5847
      5846      5845      5848      5847      5845      5848      5841      5849      5850
      5841      5849      5851      5841      5849      5852      5850      5849      5851
      5850      5849      5852      5851      5849      5852      5841      5853      5854
      5841      5853      5855      5841      5853      5856      5854      5853      5855
      5854      5853      5856      5855      5853      5856      5842      5857      5858
      5842      5857      5859      5842      5857      5863      5858      5857      5859
      5858      5857      5863      5859      5857      5863      5861      5860      5862
      5861      5860      5863      5861      5860      5864      5862      5860      5863
      5862      5860      5864      5863      5860      5864      5857      5863      5860
      5860      5864      5865      5864      5865      5866      5864      5865      5867
      5864      5865      5868      5866      5865      5867      5866      5865      5868
      5867      5865      5868      5865      5868      5869      5865      5868      5870
      5865      5868      5876      5869      5868      5870      5869      5868      5876
      5870      5868      5876      5868      5870      5871      5870      5871      5872
      5870      5871      5873      5872      5871      5873      5871      5873      5874
      5871      5873      5875      5871      5873      5885      5874      5873      5875
      5874      5873      5885      5875      5873      5885      5868      5876      5877
      5868      5876      5878      5868      5876      5879      5877      5876      5878
      5877      5876      5879      5878      5876      5879      5876      5879      5880
      5879      5880      5881      5879      5880      5882      5881      5880      5882
      5880      5882      5883      5880      5882      5884      5880      5882      5932
      5883      5882      5884      5883      5882      5932      5884      5882      5932
      5873      5885      5886      5873      5885      5887      5873      5885      5888
      5886      5885      5887      5886      5885      5888      5887      5885      5888
      5885      5888      5889      5885      5888      5890      5885      5888      5891
      5889      5888      5890      5889      5888      5891      5890      5888      5891
      5888      5891      5892      5888      5891      5893      5888      5891      5894
      5892      5891      5893      5892      5891      5894      5893      5891      5894
      5891      5894      5895      5891      5894      5896      5891      5894      5897
      5895      5894      5896      5895      5894      5897      5896      5894      5897
      5894      5897      5898      5894      5897      5899      5894      5897      5900
      5898      5897      5899      5898      5897      5900      5899      5897      5900
      5897      5900      5901      5897      5900      5902      5897      5900      5903
      5901      5900      5902      5901      5900      5903      5902      5900      5903
      5900      5903      5904      5900      5903      5905      5904      5903      5905
      5903      5905      5906      5903      5905      5907      5906      5905      5907
      5905      5907      5908      5905      5907      5909      5905      5907      5910
      5908      5907      5909      5908      5907      5910      5909      5907      5910
      5907      5910      5911      5907      5910      5912      5907      5910      5913
      5911      5910      5912      5911      5910      5913      5912      5910      5913
      5910      5913      5914      5910      5913      5915      5910      5913      5916
      5914      5913      5915      5914      5913      5916      5915      5913      5916
      5913      5916      5917      5913      5916      5918      5913      5916      5919
      5917      5916      5918      5917      5916      5919      5918      5916      5919
      5916      5919      5920      5916      5919      5921      5916      5919      5922
      5920      5919      5921      5920      5919      5922      5921      5919      5922
      5919      5922      5923      5919      5922      5924      5919      5922      5925
      5923      5922      5924      5923      5922      5925      5924      5922      5925
      5922      5925      5926      5922      5925      5927      5922      5925      5928
      5926      5925      5927      5926      5925      5928      5927      5925      5928
      5925      5928      5929      5925      5928      5930      5925      5928      5931
      5929      5928      5930      5929      5928      5931      5930      5928      5931
      5882      5932      5933      5882      5932      5934      5882      5932      5935
      5933      5932      5934      5933      5932      5935      5934      5932      5935
      5932      5935      5936      5932      5935      5937      5932      5935      5938
      5936      5935      5937      5936      5935      5938      5937      5935      5938
      5935      5938      5939      5935      5938      5940      5935      5938      5941
      5939      5938      5940      5939      5938      5941      5940      5938      5941
      5938      5941      5942      5938      5941      5943      5938      5941      5944
      5942      5941      5943      5942      5941      5944      5943      5941      5944
      5941      5944      5945      5941      5944      5946      5941      5944      5947
      5945      5944      5946      5945      5944      5947      5946      5944      5947
      5944      5947      5948      5944      5947      5949      5944      5947      5950
      5948      5947      5949      5948      5947      5950      5949      5947      5950
      5947      5950      5951      5947      5950      5952      5947      5950      5953
      5951      5950      5952      5951      5950      5953      5952      5950      5953
      5950      5953      5954      5950      5953      5955      5950      5953      5956
      5954      5953      5955      5954      5953      5956      5955      5953      5956
      5953      5956      5957      5953      5956      5958      5953      5956      5959
      5957      5956      5958      5957      5956      5959      5958      5956      5959
      5956      5959      5960      5956      5959      5961      5956      5959      5962
      5960      5959      5961      5960      5959      5962      5961      5959      5962
      5959      5962      5963      5959      5962      5964      5959      5962      5965
      5963      5962      5964      5963      5962      5965      5964      5962      5965
      5962      5965      5966      5962      5965      5967      5962      5965      5968
      5966      5965      5967      5966      5965      5968      5967      5965      5968
      5965      5968      5969      5965      5968      5970      5965      5968      5971
      5969      5968      5970      5969      5968      5971      5970      5968      5971
      5968      5971      5972      5968      5971      5973      5968      5971      5974
      5972      5971      5973      5972      5971      5974      5973      5971      5974
      5976      5975      5979      5976      5975      5983      5976      5975      5987
      5979      5975      5983      5979      5975      5987      5983      5975      5987
      5975      5976      5977      5975      5976      5978      5975      5976      5991
      5977      5976      5978      5977      5976      5991      5978      5976      5991
      5975      5979      5980      5975      5979      5981      5975      5979      5982
      5980      5979      5981      5980      5979      5982      5981      5979      5982
      5975      5983      5984      5975      5983      5985      5975      5983      5986
      5984      5983      5985      5984      5983      5986      5985      5983      5986
      5975      5987      5988      5975      5987      5989      5975      5987      5990
      5988      5987      5989      5988      5987      5990      5989      5987      5990
      5976      5991      5992      5976      5991      5993      5976      5991      5997
      5992      5991      5993      5992      5991      5997      5993      5991      5997
      5995      5994      5996      5995      5994      5997      5995      5994      5998
      5996      5994      5997      5996      5994      5998      5997      5994      5998
      5991      5997      5994      5994      5998      5999      5998      5999      6000
      5998      5999      6001      5998      5999      6002      6000      5999      6001
      6000      5999      6002      6001      5999      6002      5999      6002      6003
      5999      6002      6004      5999      6002      6010      6003      6002      6004
      6003      6002      6010      6004      6002      6010      6002      6004      6005
      6004      6005      6006      6004      6005      6007      6006      6005      6007
      6005      6007      6008      6005      6007      6009      6005      6007      6019
      6008      6007      6009      6008      6007      6019      6009      6007      6019
      6002      6010      6011      6002      6010      6012      6002      6010      6013
      6011      6010      6012      6011      6010      6013      6012      6010      6013
      6010      6013      6014      6013      6014      6015      6013      6014      6016
      6015      6014      6016      6014      6016      6017      6014      6016      6018
      6014      6016      6066      6017      6016      6018      6017      6016      6066
      6018      6016      6066      6007      6019      6020      6007      6019      6021
      6007      6019      6022      6020      6019      6021      6020      6019      6022
      6021      6019      6022      6019      6022      6023      6019      6022      6024
      6019      6022      6025      6023      6022      6024      6023      6022      6025
      6024      6022      6025      6022      6025      6026      6022      6025      6027
      6022      6025      6028      6026      6025      6027      6026      6025      6028
      6027      6025      6028      6025      6028      6029      6025      6028      6030
      6025      6028      6031      6029      6028      6030      6029      6028      6031
      6030      6028      6031      6028      6031      6032      6028      6031      6033
      6028      6031      6034      6032      6031      6033      6032      6031      6034
      6033      6031      6034      6031      6034      6035      6031      6034      6036
      6031      6034      6037      6035      6034      6036      6035      6034      6037
      6036      6034      6037      6034      6037      6038      6034      6037      6039
      6038      6037      6039      6037      6039      6040      6037      6039      6041
      6040      6039      6041      6039      6041      6042      6039      6041      6043
      6039      6041      6044      6042      6041      6043      6042      6041      6044
      6043      6041      6044      6041      6044      6045      6041      6044      6046
      6041      6044      6047      6045      6044      6046      6045      6044      6047
      6046      6044      6047      6044      6047      6048      6044      6047      6049
      6044      6047      6050      6048      6047      6049      6048      6047      6050
      6049      6047      6050      6047      6050      6051      6047      6050      6052
      6047      6050      6053      6051      6050      6052      6051      6050      6053
      6052      6050      6053      6050      6053      6054      6050      6053      6055
      6050      6053      6056      6054      6053      6055      6054      6053      6056
      6055      6053      6056      6053      6056      6057      6053      6056      6058
      6053      6056      6059      6057      6056      6058      6057      6056      6059
      6058      6056      6059      6056      6059      6060      6056      6059      6061
      6056      6059      6062      6060      6059      6061      6060      6059      6062
      6061      6059      6062      6059      6062      6063      6059      6062      6064
      6059      6062      6065      6063      6062      6064      6063      6062      6065
      6064      6062      6065      6016      6066      6067      6016      6066      6068
      6016      6066      6069      6067      6066      6068      6067      6066      6069
      6068      6066      6069      6066      6069      6070      6066      6069      6071
      6066      6069      6072      6070      6069      6071      6070      6069      6072
      6071      6069      6072      6069      6072      6073      6069      6072      6074
      6069      6072      6075      6073      6072      6074      6073      6072      6075
      6074      6072      6075      6072      6075      6076      6072      6075      6077
      6072      6075      6078      6076      6075      6077      6076      6075      6078
      6077      6075      6078      6075      6078      6079      6075      6078      6080
      6075      6078      6081      6079      6078      6080      6079      6078      6081
      6080      6078      6081      6078      6081      6082      6078      6081      6083
      6078      6081      6084      6082      6081      6083      6082      6081      6084
      6083      6081      6084      6081      6084      6085      6081      6084      6086
      6081      6084      6087      6085      6084      6086      6085      6084      6087
      6086      6084      6087      6084      6087      6088      6084      6087      6089
      6084      6087      6090      6088      6087      6089      6088      6087      6090
      6089      6087      6090      6087      6090      6091      6087      6090      6092
      6087      6090      6093      6091      6090      6092      6091      6090      6093
      6092      6090      6093      6090      6093      6094      6090      6093      6095
      6090      6093      6096      6094      6093      6095      6094      6093      6096
      6095      6093      6096      6093      6096      6097      6093      6096      6098
      6093      6096      6099      6097      6096      6098      6097      6096      6099
      6098      6096      6099      6096      6099      6100      6096      6099      6101
      6096      6099      6102      6100      6099      6101      6100      6099      6102
      6101      6099      6102      6099      6102      6103      6099      6102      6104
      6099      6102      6105      6103      6102      6104      6103      6102      6105
      6104      6102      6105      6102      6105      6106      6102      6105      6107
      6102      6105      6108      6106      6105      6107      6106      6105      6108
      6107      6105      6108      6110      6109      6111      6110      6109      6112
      6110      6109      6113      6111      6109      6112      6111      6109      6113
      6112      6109      6113      6109      6113      6114      6109      6113      6115
      6109      6113      6118      6114      6113      6115      6114      6113      6118
      6115      6113      6118      6113      6115      6116      6113      6115      6117
      6116      6115      6117      6113      6118      6119      6113      6118      6120
      6113      6118      6124      6119      6118      6120      6119      6118      6124
      6120      6118      6124      6122      6121      6123      6122      6121      6124
      6122      6121      6125      6123      6121      6124      6123      6121      6125
      6124      6121      6125      6118      6124      6121      6121      6125      6126
      6125      6126      6127      6125      6126      6128      6125      6126      6129
      6127      6126      6128      6127      6126      6129      6128      6126      6129
      6126      6129      6130      6126      6129      6131      6126      6129      6137
      6130      6129      6131      6130      6129      6137      6131      6129      6137
      6129      6131      6132      6131      6132      6133      6131      6132      6134
      6133      6132      6134      6132      6134      6135      6132      6134      6136
      6132      6134      6146      6135      6134      6136      6135      6134      6146
      6136      6134      6146      6129      6137      6138      6129      6137      6139
      6129      6137      6140      6138      6137      6139      6138      6137      6140
      6139      6137      6140      6137      6140      6141      6140      6141      6142
      6140      6141      6143      6142      6141      6143      6141      6143      6144
      6141      6143      6145      6141      6143      6193      6144      6143      6145
      6144      6143      6193      6145      6143      6193      6134      6146      6147
      6134      6146      6148      6134      6146      6149      6147      6146      6148
      6147      6146      6149      6148      6146      6149      6146      6149      6150
      6146      6149      6151      6146      6149      6152      6150      6149      6151
      6150      6149      6152      6151      6149      6152      6149      6152      6153
      6149      6152      6154      6149      6152      6155      6153      6152      6154
      6153      6152      6155      6154      6152      6155      6152      6155      6156
      6152      6155      6157      6152      6155      6158      6156      6155      6157
      6156      6155      6158      6157      6155      6158      6155      6158      6159
      6155      6158      6160      6155      6158      6161      6159      6158      6160
      6159      6158      6161      6160      6158      6161      6158      6161      6162
      6158      6161      6163      6158      6161      6164      6162      6161      6163
      6162      6161      6164      6163      6161      6164      6161      6164      6165
      6161      6164      6166      6165      6164      6166      6164      6166      6167
      6164      6166      6168      6167      6166      6168      6166      6168      6169
      6166      6168      6170      6166      6168      6171      6169      6168      6170
      6169      6168      6171      6170      6168      6171      6168      6171      6172
      6168      6171      6173      6168      6171      6174      6172      6171      6173
      6172      6171      6174      6173      6171      6174      6171      6174      6175
      6171      6174      6176      6171      6174      6177      6175      6174      6176
      6175      6174      6177      6176      6174      6177      6174      6177      6178
      6174      6177      6179      6174      6177      6180      6178      6177      6179
      6178      6177      6180      6179      6177      6180      6177      6180      6181
      6177      6180      6182      6177      6180      6183      6181      6180      6182
      6181      6180      6183      6182      6180      6183      6180      6183      6184
      6180      6183      6185      6180      6183      6186      6184      6183      6185
      6184      6183      6186      6185      6183      6186      6183      6186      6187
      6183      6186      6188      6183      6186      6189      6187      6186      6188
      6187      6186      6189      6188      6186      6189      6186      6189      6190
      6186      6189      6191      6186      6189      6192      6190      6189      6191
      6190      6189      6192      6191      6189      6192      6143      6193      6194
      6143      6193      6195      6143      6193      6196      6194      6193      6195
      6194      6193      6196      6195      6193      6196      6193      6196      6197
      6193      6196      6198      6193      6196      6199      6197      6196      6198
      6197      6196      6199      6198      6196      6199      6196      6199      6200
      6196      6199      6201      6196      6199      6202      6200      6199      6201
      6200      6199      6202      6201      6199      6202      6199      6202      6203
      6199      6202      6204      6199      6202      6205      6203      6202      6204
      6203      6202      6205      6204      6202      6205      6202      6205      6206
      6202      6205      6207      6202      6205      6208      6206      6205      6207
      6206      6205      6208      6207      6205      6208      6205      6208      6209
      6205      6208      6210      6205      6208      6211      6209      6208      6210
      6209      6208      6211      6210      6208      6211      6208      6211      6212
      6208      6211      6213      6208      6211      6214      6212      6211      6213
      6212      6211      6214      6213      6211      6214      6211      6214      6215
      6211      6214      6216      6211      6214      6217      6215      6214      6216
      6215      6214      6217      6216      6214      6217      6214      6217      6218
      6214      6217      6219      6214      6217      6220      6218      6217      6219
      6218      6217      6220      6219      6217      6220      6217      6220      6221
      6217      6220      6222      6217      6220      6223      6221      6220      6222
      6221      6220      6223      6222      6220      6223      6220      6223      6224
      6220      6223      6225      6220      6223      6226      6224      6223      6225
      6224      6223      6226      6225      6223      6226      6223      6226      6227
      6223      6226      6228      6223      6226      6229      6227      6226      6228
      6227      6226      6229      6228      6226      6229      6226      6229      6230
      6226      6229      6231      6226      6229      6232      6230      6229      6231
      6230      6229      6232      6231      6229      6232      6229      6232      6233
      6229      6232      6234      6229      6232      6235      6233      6232      6234
      6233      6232      6235      6234      6232      6235      6237      6236      6240
      6237      6236      6244      6237      6236      6248      6240      6236      6244
      6240      6236      6248      6244      6236      6248      6236      6237      6238
      6236      6237      6239      6236      6237      6252      6238      6237      6239
      6238      6237      6252      6239      6237      6252      6236      6240      6241
      6236      6240      6242      6236      6240      6243      6241      6240      6242
      6241      6240      6243      6242      6240      6243      6236      6244      6245
      6236      6244      6246      6236      6244      6247      6245      6244      6246
      6245      6244      6247      6246      6244      6247      6236      6248      6249
      6236      6248      6250      6236      6248      6251      6249      6248      6250
      6249      6248      6251      6250      6248      6251      6237      6252      6253
      6237      6252      6254      6237      6252      6258      6253      6252      6254
      6253      6252      6258      6254      6252      6258      6256      6255      6257
      6256      6255      6258      6256      6255      6259      6257      6255      6258
      6257      6255      6259      6258      6255      6259      6252      6258      6255
      6255      6259      6260      6259      6260      6261      6259      6260      6262
      6259      6260      6263      6261      6260      6262      6261      6260      6263
      6262      6260      6263      6260      6263      6264      6260      6263      6265
      6260      6263      6271      6264      6263      6265      6264      6263      6271
      6265      6263      6271      6263      6265      6266      6265      6266      6267
      6265      6266      6268      6267      6266      6268      6266      6268      6269
      6266      6268      6270      6266      6268      6280      6269      6268      6270
      6269      6268      6280      6270      6268      6280      6263      6271      6272
      6263      6271      6273      6263      6271      6274      6272      6271      6273
      6272      6271      6274      6273      6271      6274      6271      6274      6275
      6274      6275      6276      6274      6275      6277      6276      6275      6277
      6275      6277      6278      6275      6277      6279      6275      6277      6327
      6278      6277      6279      6278      6277      6327      6279      6277      6327
      6268      6280      6281      6268      6280      6282      6268      6280      6283
      6281      6280      6282      6281      6280      6283      6282      6280      6283
      6280      6283      6284      6280      6283      6285      6280      6283      6286
      6284      6283      6285      6284      6283      6286      6285      6283      6286
      6283      6286      6287      6283      6286      6288      6283      6286      6289
      6287      6286      6288      6287      6286      6289      6288      6286      6289
      6286      6289      6290      6286      6289      6291      6286      6289      6292
      6290      6289      6291      6290      6289      6292      6291      6289      6292
      6289      6292      6293      6289      6292      6294      6289      6292      6295
      6293      6292      6294      6293      6292      6295      6294      6292      6295
      6292      6295      6296      6292      6295      6297      6292      6295      6298
      6296      6295      6297      6296      6295      6298      6297      6295      6298
      6295      6298      6299      6295      6298      6300      6299      6298      6300
      6298      6300      6301      6298      6300      6302      6301      6300      6302
      6300      6302      6303      6300      6302      6304      6300      6302      6305
      6303      6302      6304      6303      6302      6305      6304      6302      6305
      6302      6305      6306      6302      6305      6307      6302      6305      6308
      6306      6305      6307      6306      6305      6308      6307      6305      6308
      6305      6308      6309      6305      6308      6310      6305      6308      6311
      6309      6308      6310      6309      6308      6311      6310      6308      6311
      6308      6311      6312      6308      6311      6313      6308      6311      6314
      6312      6311      6313      6312      6311      6314      6313      6311      6314
      6311      6314      6315      6311      6314      6316      6311      6314      6317
      6315      6314      6316      6315      6314      6317      6316      6314      6317
      6314      6317      6318      6314      6317      6319      6314      6317      6320
      6318      6317      6319      6318      6317      6320      6319      6317      6320
      6317      6320      6321      6317      6320      6322      6317      6320      6323
      6321      6320      6322      6321      6320      6323      6322      6320      6323
      6320      6323      6324      6320      6323      6325      6320      6323      6326
      6324      6323      6325      6324      6323      6326      6325      6323      6326
      6277      6327      6328      6277      6327      6329      6277      6327      6330
      6328      6327      6329      6328      6327      6330      6329      6327      6330
      6327      6330      6331      6327      6330      6332      6327      6330      6333
      6331      6330      6332      6331      6330      6333      6332      6330      6333
      6330      6333      6334      6330      6333      6335      6330      6333      6336
      6334      6333      6335      6334      6333      6336      6335      6333      6336
      6333      6336      6337      6333      6336      6338      6333      6336      6339
      6337      6336      6338      6337      6336      6339      6338      6336      6339
      6336      6339      6340      6336      6339      6341      6336      6339      6342
      6340      6339      6341      6340      6339      6342      6341      6339      6342
      6339      6342      6343      6339      6342      6344      6339      6342      6345
      6343      6342      6344      6343      6342      6345      6344      6342      6345
      6342      6345      6346      6342      6345      6347      6342      6345      6348
      6346      6345      6347      6346      6345      6348      6347      6345      6348
      6345      6348      6349      6345      6348      6350      6345      6348      6351
      6349      6348      6350      6349      6348      6351      6350      6348      6351
      6348      6351      6352      6348      6351      6353      6348      6351      6354
      6352      6351      6353      6352      6351      6354      6353      6351      6354
      6351      6354      6355      6351      6354      6356      6351      6354      6357
      6355      6354      6356      6355      6354      6357      6356      6354      6357
      6354      6357      6358      6354      6357      6359      6354      6357      6360
      6358      6357      6359      6358      6357      6360      6359      6357      6360
      6357      6360      6361      6357      6360      6362      6357      6360      6363
      6361      6360      6362      6361      6360      6363      6362      6360      6363
      6360      6363      6364      6360      6363      6365      6360      6363      6366
      6364      6363      6365      6364      6363      6366      6365      6363      6366
      6363      6366      6367      6363      6366      6368      6363      6366      6369
      6367      6366      6368      6367      6366      6369      6368      6366      6369
      6371      6370      6374      6371      6370      6378      6371      6370      6382
      6374      6370      6378      6374      6370      6382      6378      6370      6382
      6370      6371      6372      6370      6371      6373      6370      6371      6386
      6372      6371      6373      6372      6371      6386      6373      6371      6386
      6370      6374      6375      6370      6374      6376      6370      6374      6377
      6375      6374      6376      6375      6374      6377      6376      6374      6377
      6370      6378      6379      6370      6378      6380      6370      6378      6381
      6379      6378      6380      6379      6378      6381      6380      6378      6381
      6370      6382      6383      6370      6382      6384      6370      6382      6385
      6383      6382      6384      6383      6382      6385      6384      6382      6385
      6371      6386      6387      6371      6386      6388      6371      6386      6392
      6387      6386      6388      6387      6386      6392      6388      6386      6392
      6390      6389      6391      6390      6389      6392      6390      6389      6393
      6391      6389      6392      6391      6389      6393      6392      6389      6393
      6386      6392      6389      6389      6393      6394      6393      6394      6395
      6393      6394      6396      6393      6394      6397      6395      6394      6396
      6395      6394      6397      6396      6394      6397      6394      6397      6398
      6394      6397      6399      6394      6397      6405      6398      6397      6399
      6398      6397      6405      6399      6397      6405      6397      6399      6400
      6399      6400      6401      6399      6400      6402      6401      6400      6402
      6400      6402      6403      6400      6402      6404      6400      6402      6414
      6403      6402      6404      6403      6402      6414      6404      6402      6414
      6397      6405      6406      6397      6405      6407      6397      6405      6408
      6406      6405      6407      6406      6405      6408      6407      6405      6408
      6405      6408      6409      6408      6409      6410      6408      6409      6411
      6410      6409      6411      6409      6411      6412      6409      6411      6413
      6409      6411      6461      6412      6411      6413      6412      6411      6461
      6413      6411      6461      6402      6414      6415      6402      6414      6416
      6402      6414      6417      6415      6414      6416      6415      6414      6417
      6416      6414      6417      6414      6417      6418      6414      6417      6419
      6414      6417      6420      6418      6417      6419      6418      6417      6420
      6419      6417      6420      6417      6420      6421      6417      6420      6422
      6417      6420      6423      6421      6420      6422      6421      6420      6423
      6422      6420      6423      6420      6423      6424      6420      6423      6425
      6420      6423      6426      6424      6423      6425      6424      6423      6426
      6425      6423      6426      6423      6426      6427      6423      6426      6428
      6423      6426      6429      6427      6426      6428      6427      6426      6429
      6428      6426      6429      6426      6429      6430      6426      6429      6431
      6426      6429      6432      6430      6429      6431      6430      6429      6432
      6431      6429      6432      6429      6432      6433      6429      6432      6434
      6433      6432      6434      6432      6434      6435      6432      6434      6436
      6435      6434      6436      6434      6436      6437      6434      6436      6438
      6434      6436      6439      6437      6436      6438      6437      6436      6439
      6438      6436      6439      6436      6439      6440      6436      6439      6441
      6436      6439      6442      6440      6439      6441      6440      6439      6442
      6441      6439      6442      6439      6442      6443      6439      6442      6444
      6439      6442      6445      6443      6442      6444      6443      6442      6445
      6444      6442      6445      6442      6445      6446      6442      6445      6447
      6442      6445      6448      6446      6445      6447      6446      6445      6448
      6447      6445      6448      6445      6448      6449      6445      6448      6450
      6445      6448      6451      6449      6448      6450      6449      6448      6451
      6450      6448      6451      6448      6451      6452      6448      6451      6453
      6448      6451      6454      6452      6451      6453      6452      6451      6454
      6453      6451      6454      6451      6454      6455      6451      6454      6456
      6451      6454      6457      6455      6454      6456      6455      6454      6457
      6456      6454      6457      6454      6457      6458      6454      6457      6459
      6454      6457      6460      6458      6457      6459      6458      6457      6460
      6459      6457      6460      6411      6461      6462      6411      6461      6463
      6411      6461      6464      6462      6461      6463      6462      6461      6464
      6463      6461      6464      6461      6464      6465      6461      6464      6466
      6461      6464      6467      6465      6464      6466      6465      6464      6467
      6466      6464      6467      6464      6467      6468      6464      6467      6469
      6464      6467      6470      6468      6467      6469      6468      6467      6470
      6469      6467      6470      6467      6470      6471      6467      6470      6472
      6467      6470      6473      6471      6470      6472      6471      6470      6473
      6472      6470      6473      6470      6473      6474      6470      6473      6475
      6470      6473      6476      6474      6473      6475      6474      6473      6476
      6475      6473      6476      6473      6476      6477      6473      6476      6478
      6473      6476      6479      6477      6476      6478      6477      6476      6479
      6478      6476      6479      6476      6479      6480      6476      6479      6481
      6476      6479      6482      6480      6479      6481      6480      6479      6482
      6481      6479      6482      6479      6482      6483      6479      6482      6484
      6479      6482      6485      6483      6482      6484      6483      6482      6485
      6484      6482      6485      6482      6485      6486      6482      6485      6487
      6482      6485      6488      6486      6485      6487      6486      6485      6488
      6487      6485      6488      6485      6488      6489      6485      6488      6490
      6485      6488      6491      6489      6488      6490      6489      6488      6491
      6490      6488      6491      6488      6491      6492      6488      6491      6493
      6488      6491      6494      6492      6491      6493      6492      6491      6494
      6493      6491      6494      6491      6494      6495      6491      6494      6496
      6491      6494      6497      6495      6494      6496      6495      6494      6497
      6496      6494      6497      6494      6497      6498      6494      6497      6499
      6494      6497      6500      6498      6497      6499      6498      6497      6500
      6499      6497      6500      6497      6500      6501      6497      6500      6502
      6497      6500      6503      6501      6500      6502      6501      6500      6503
      6502      6500      6503      6505      6504      6506      6505      6504      6507
      6505      6504      6508      6506      6504      6507      6506      6504      6508
      6507      6504      6508      6504      6508      6509      6504      6508      6510
      6504      6508      6513      6509      6508      6510      6509      6508      6513
      6510      6508      6513      6508      6510      6511      6508      6510      6512
      6511      6510      6512      6508      6513      6514      6508      6513      6515
      6508      6513      6519      6514      6513      6515      6514      6513      6519
      6515      6513      6519      6517      6516      6518      6517      6516      6519
      6517      6516      6520      6518      6516      6519      6518      6516      6520
      6519      6516      6520      6513      6519      6516      6516      6520      6521
      6520      6521      6522      6520      6521      6523      6520      6521      6524
      6522      6521      6523      6522      6521      6524      6523      6521      6524
      6521      6524      6525      6521      6524      6526      6521      6524      6532
      6525      6524      6526      6525      6524      6532      6526      6524      6532
      6524      6526      6527      6526      6527      6528      6526      6527      6529
      6528      6527      6529      6527      6529      6530      6527      6529      6531
      6527      6529      6541      6530      6529      6531      6530      6529      6541
      6531      6529      6541      6524      6532      6533      6524      6532      6534
      6524      6532      6535      6533      6532      6534      6533      6532      6535
      6534      6532      6535      6532      6535      6536      6535      6536      6537
      6535      6536      6538      6537      6536      6538      6536      6538      6539
      6536      6538      6540      6536      6538      6588      6539      6538      6540
      6539      6538      6588      6540      6538      6588      6529      6541      6542
      6529      6541      6543      6529      6541      6544      6542      6541      6543
      6542      6541      6544      6543      6541      6544      6541      6544      6545
      6541      6544      6546      6541      6544      6547      6545      6544      6546
      6545      6544      6547      6546      6544      6547      6544      6547      6548
      6544      6547      6549      6544      6547      6550      6548      6547      6549
      6548      6547      6550      6549      6547      6550      6547      6550      6551
      6547      6550      6552      6547      6550      6553      6551      6550      6552
      6551      6550      6553      6552      6550      6553      6550      6553      6554
      6550      6553      6555      6550      6553      6556      6554      6553      6555
      6554      6553      6556      6555      6553      6556      6553      6556      6557
      6553      6556      6558      6553      6556      6559      6557      6556      6558
      6557      6556      6559      6558      6556      6559      6556      6559      6560
      6556      6559      6561      6560      6559      6561      6559      6561      6562
      6559      6561      6563      6562      6561      6563      6561      6563      6564
      6561      6563      6565      6561      6563      6566      6564      6563      6565
      6564      6563      6566      6565      6563      6566      6563      6566      6567
      6563      6566      6568      6563      6566      6569      6567      6566      6568
      6567      6566      6569      6568      6566      6569      6566      6569      6570
      6566      6569      6571      6566      6569      6572      6570      6569      6571
      6570      6569      6572      6571      6569      6572      6569      6572      6573
      6569      6572      6574      6569      6572      6575      6573      6572      6574
      6573      6572      6575      6574      6572      6575      6572      6575      6576
      6572      6575      6577      6572      6575      6578      6576      6575      6577
      6576      6575      6578      6577      6575      6578      6575      6578      6579
      6575      6578      6580      6575      6578      6581      6579      6578      6580
      6579      6578      6581      6580      6578      6581      6578      6581      6582
      6578      6581      6583      6578      6581      6584      6582      6581      6583
      6582      6581      6584      6583      6581      6584      6581      6584      6585
      6581      6584      6586      6581      6584      6587      6585      6584      6586
      6585      6584      6587      6586      6584      6587      6538      6588      6589
      6538      6588      6590      6538      6588      6591      6589      6588      6590
      6589      6588      6591      6590      6588      6591      6588      6591      6592
      6588      6591      6593      6588      6591      6594      6592      6591      6593
      6592      6591      6594      6593      6591      6594      6591      6594      6595
      6591      6594      6596      6591      6594      6597      6595      6594      6596
      6595      6594      6597      6596      6594      6597      6594      6597      6598
      6594      6597      6599      6594      6597      6600      6598      6597      6599
      6598      6597      6600      6599      6597      6600      6597      6600      6601
      6597      6600      6602      6597      6600      6603      6601      6600      6602
      6601      6600      6603      6602      6600      6603      6600      6603      6604
      6600      6603      6605      6600      6603      6606      6604      6603      6605
      6604      6603      6606      6605      6603      6606      6603      6606      6607
      6603      6606      6608      6603      6606      6609      6607      6606      6608
      6607      6606      6609      6608      6606      6609      6606      6609      6610
      6606      6609      6611      6606      6609      6612      6610      6609      6611
      6610      6609      6612      6611      6609      6612      6609      6612      6613
      6609      6612      6614      6609      6612      6615      6613      6612      6614
      6613      6612      6615      6614      6612      6615      6612      6615      6616
      6612      6615      6617      6612      6615      6618      6616      6615      6617
      6616      6615      6618      6617      6615      6618      6615      6618      6619
      6615      6618      6620      6615      6618      6621      6619      6618      6620
      6619      6618      6621      6620      6618      6621      6618      6621      6622
      6618      6621      6623      6618      6621      6624      6622      6621      6623
      6622      6621      6624      6623      6621      6624      6621      6624      6625
      6621      6624      6626      6621      6624      6627      6625      6624      6626
      6625      6624      6627      6626      6624      6627      6624      6627      6628
      6624      6627      6629      6624      6627      6630      6628      6627      6629
      6628      6627      6630      6629      6627      6630      6632      6631      6633
      6632      6631      6634      6632      6631      6635      6633      6631      6634
      6633      6631      6635      6634      6631      6635      6631      6635      6636
      6631      6635      6637      6631      6635      6640      6636      6635      6637
      6636      6635      6640      6637      6635      6640      6635      6637      6638
      6635      6637      6639      6638      6637      6639      6635      6640      6641
      6635      6640      6642      6635      6640      6646      6641      6640      6642
      6641      6640      6646      6642      6640      6646      6644      6643      6645
      6644      6643      6646      6644      6643      6647      6645      6643      6646
      6645      6643      6647      6646      6643      6647      6640      6646      6643
      6643      6647      6648      6647      6648      6649      6647      6648      6650
      6647      6648      6651      6649      6648      6650      6649      6648      6651
      6650      6648      6651      6648      6651      6652      6648      6651      6653
      6648      6651      6659      6652      6651      6653      6652      6651      6659
      6653      6651      6659      6651      6653      6654      6653      6654      6655
      6653      6654      6656      6655      6654      6656      6654      6656      6657
      6654      6656      6658      6654      6656      6668      6657      6656      6658
      6657      6656      6668      6658      6656      6668      6651      6659      6660
      6651      6659      6661      6651      6659      6662      6660      6659      6661
      6660      6659      6662      6661      6659      6662      6659      6662      6663
      6662      6663      6664      6662      6663      6665      6664      6663      6665
      6663      6665      6666      6663      6665      6667      6663      6665      6715
      6666      6665      6667      6666      6665      6715      6667      6665      6715
      6656      6668      6669      6656      6668      6670      6656      6668      6671
      6669      6668      6670      6669      6668      6671      6670      6668      6671
      6668      6671      6672      6668      6671      6673      6668      6671      6674
      6672      6671      6673      6672      6671      6674      6673      6671      6674
      6671      6674      6675      6671      6674      6676      6671      6674      6677
      6675      6674      6676      6675      6674      6677      6676      6674      6677
      6674      6677      6678      6674      6677      6679      6674      6677      6680
      6678      6677      6679      6678      6677      6680      6679      6677      6680
      6677      6680      6681      6677      6680      6682      6677      6680      6683
      6681      6680      6682      6681      6680      6683      6682      6680      6683
      6680      6683      6684      6680      6683      6685      6680      6683      6686
      6684      6683      6685      6684      6683      6686      6685      6683      6686
      6683      6686      6687      6683      6686      6688      6687      6686      6688
      6686      6688      6689      6686      6688      6690      6689      6688      6690
      6688      6690      6691      6688      6690      6692      6688      6690      6693
      6691      6690      6692      6691      6690      6693      6692      6690      6693
      6690      6693      6694      6690      6693      6695      6690      6693      6696
      6694      6693      6695      6694      6693      6696      6695      6693      6696
      6693      6696      6697      6693      6696      6698      6693      6696      6699
      6697      6696      6698      6697      6696      6699      6698      6696      6699
      6696      6699      6700      6696      6699      6701      6696      6699      6702
      6700      6699      6701      6700      6699      6702      6701      6699      6702
      6699      6702      6703      6699      6702      6704      6699      6702      6705
      6703      6702      6704      6703      6702      6705      6704      6702      6705
      6702      6705      6706      6702      6705      6707      6702      6705      6708
      6706      6705      6707      6706      6705      6708      6707      6705      6708
      6705      6708      6709      6705      6708      6710      6705      6708      6711
      6709      6708      6710      6709      6708      6711      6710      6708      6711
      6708      6711      6712      6708      6711      6713      6708      6711      6714
      6712      6711      6713      6712      6711      6714      6713      6711      6714
      6665      6715      6716      6665      6715      6717      6665      6715      6718
      6716      6715      6717      6716      6715      6718      6717      6715      6718
      6715      6718      6719      6715      6718      6720      6715      6718      6721
      6719      6718      6720      6719      6718      6721      6720      6718      6721
      6718      6721      6722      6718      6721      6723      6718      6721      6724
      6722      6721      6723      6722      6721      6724      6723      6721      6724
      6721      6724      6725      6721      6724      6726      6721      6724      6727
      6725      6724      6726      6725      6724      6727      6726      6724      6727
      6724      6727      6728      6724      6727      6729      6724      6727      6730
      6728      6727      6729      6728      6727      6730      6729      6727      6730
      6727      6730      6731      6727      6730      6732      6727      6730      6733
      6731      6730      6732      6731      6730      6733      6732      6730      6733
      6730      6733      6734      6730      6733      6735      6730      6733      6736
      6734      6733      6735      6734      6733      6736      6735      6733      6736
      6733      6736      6737      6733      6736      6738      6733      6736      6739
      6737      6736      6738      6737      6736      6739      6738      6736      6739
      6736      6739      6740      6736      6739      6741      6736      6739      6742
      6740      6739      6741      6740      6739      6742      6741      6739      6742
      6739      6742      6743      6739      6742      6744      6739      6742      6745
      6743      6742      6744      6743      6742      6745      6744      6742      6745
      6742      6745      6746      6742      6745      6747      6742      6745      6748
      6746      6745      6747      6746      6745      6748      6747      6745      6748
      6745      6748      6749      6745      6748      6750      6745      6748      6751
      6749      6748      6750      6749      6748      6751      6750      6748      6751
      6748      6751      6752      6748      6751      6753      6748      6751      6754
      6752      6751      6753      6752      6751      6754      6753      6751      6754
      6751      6754      6755      6751      6754      6756      6751      6754      6757
      6755      6754      6756      6755      6754      6757      6756      6754      6757
      6759      6758      6762      6759      6758      6766      6759      6758      6770
      6762      6758      6766      6762      6758      6770      6766      6758      6770
      6758      6759      6760      6758      6759      6761      6758      6759      6774
      6760      6759      6761      6760      6759      6774      6761      6759      6774
      6758      6762      6763      6758      6762      6764      6758      6762      6765
      6763      6762      6764      6763      6762      6765      6764      6762      6765
      6758      6766      6767      6758      6766      6768      6758      6766      6769
      6767      6766      6768      6767      6766      6769      6768      6766      6769
      6758      6770      6771      6758      6770      6772      6758      6770      6773
      6771      6770      6772      6771      6770      6773      6772      6770      6773
      6759      6774      6775      6759      6774      6776      6759      6774      6780
      6775      6774      6776      6775      6774      6780      6776      6774      6780
      6778      6777      6779      6778      6777      6780      6778      6777      6781
      6779      6777      6780      6779      6777      6781      6780      6777      6781
      6774      6780      6777      6777      6781      6782      6781      6782      6783
      6781      6782      6784      6781      6782      6785      6783      6782      6784
      6783      6782      6785      6784      6782      6785      6782      6785      6786
      6782      6785      6787      6782      6785      6793      6786      6785      6787
      6786      6785      6793      6787      6785      6793      6785      6787      6788
      6787      6788      6789      6787      6788      6790      6789      6788      6790
      6788      6790      6791      6788      6790      6792      6788      6790      6802
      6791      6790      6792      6791      6790      6802      6792      6790      6802
      6785      6793      6794      6785      6793      6795      6785      6793      6796
      6794      6793      6795      6794      6793      6796      6795      6793      6796
      6793      6796      6797      6796      6797      6798      6796      6797      6799
      6798      6797      6799      6797      6799      6800      6797      6799      6801
      6797      6799      6849      6800      6799      6801      6800      6799      6849
      6801      6799      6849      6790      6802      6803      6790      6802      6804
      6790      6802      6805      6803      6802      6804      6803      6802      6805
      6804      6802      6805      6802      6805      6806      6802      6805      6807
      6802      6805      6808      6806      6805      6807      6806      6805      6808
      6807      6805      6808      6805      6808      6809      6805      6808      6810
      6805      6808      6811      6809      6808      6810      6809      6808      6811
      6810      6808      6811      6808      6811      6812      6808      6811      6813
      6808      6811      6814      6812      6811      6813      6812      6811      6814
      6813      6811      6814      6811      6814      6815      6811      6814      6816
      6811      6814      6817      6815      6814      6816      6815      6814      6817
      6816      6814      6817      6814      6817      6818      6814      6817      6819
      6814      6817      6820      6818      6817      6819      6818      6817      6820
      6819      6817      6820      6817      6820      6821      6817      6820      6822
      6821      6820      6822      6820      6822      6823      6820      6822      6824
      6823      6822      6824      6822      6824      6825      6822      6824      6826
      6822      6824      6827      6825      6824      6826      6825      6824      6827
      6826      6824      6827      6824      6827      6828      6824      6827      6829
      6824      6827      6830      6828      6827      6829      6828      6827      6830
      6829      6827      6830      6827      6830      6831      6827      6830      6832
      6827      6830      6833      6831      6830      6832      6831      6830      6833
      6832      6830      6833      6830      6833      6834      6830      6833      6835
      6830      6833      6836      6834      6833      6835      6834      6833      6836
      6835      6833      6836      6833      6836      6837      6833      6836      6838
      6833      6836      6839      6837      6836      6838      6837      6836      6839
      6838      6836      6839      6836      6839      6840      6836      6839      6841
      6836      6839      6842      6840      6839      6841      6840      6839      6842
      6841      6839      6842      6839      6842      6843      6839      6842      6844
      6839      6842      6845      6843      6842      6844      6843      6842      6845
      6844      6842      6845      6842      6845      6846      6842      6845      6847
      6842      6845      6848      6846      6845      6847      6846      6845      6848
      6847      6845      6848      6799      6849      6850      6799      6849      6851
      6799      6849      6852      6850      6849      6851      6850      6849      6852
      6851      6849      6852      6849      6852      6853      6849      6852      6854
      6849      6852      6855      6853      6852      6854      6853      6852      6855
      6854      6852      6855      6852      6855      6856      6852      6855      6857
      6852      6855      6858      6856      6855      6857      6856      6855      6858
      6857      6855      6858      6855      6858      6859      6855      6858      6860
      6855      6858      6861      6859      6858      6860      6859      6858      6861
      6860      6858      6861      6858      6861      6862      6858      6861      6863
      6858      6861      6864      6862      6861      6863      6862      6861      6864
      6863      6861      6864      6861      6864      6865      6861      6864      6866
      6861      6864      6867      6865      6864      6866      6865      6864      6867
      6866      6864      6867      6864      6867      6868      6864      6867      6869
      6864      6867      6870      6868      6867      6869      6868      6867      6870
      6869      6867      6870      6867      6870      6871      6867      6870      6872
      6867      6870      6873      6871      6870      6872      6871      6870      6873
      6872      6870      6873      6870      6873      6874      6870      6873      6875
      6870      6873      6876      6874      6873      6875      6874      6873      6876
      6875      6873      6876      6873      6876      6877      6873      6876      6878
      6873      6876      6879      6877      6876      6878      6877      6876      6879
      6878      6876      6879      6876      6879      6880      6876      6879      6881
      6876      6879      6882      6880      6879      6881      6880      6879      6882
      6881      6879      6882      6879      6882      6883      6879      6882      6884
      6879      6882      6885      6883      6882      6884      6883      6882      6885
      6884      6882      6885      6882      6885      6886      6882      6885      6887
      6882      6885      6888      6886      6885      6887      6886      6885      6888
      6887      6885      6888      6885      6888      6889      6885      6888      6890
      6885      6888      6891      6889      6888      6890      6889      6888      6891
      6890      6888      6891      6893      6892      6896      6893      6892      6900
      6893      6892      6904      6896      6892      6900      6896      6892      6904
      6900      6892      6904      6892      6893      6894      6892      6893      6895
      6892      6893      6908      6894      6893      6895      6894      6893      6908
      6895      6893      6908      6892      6896      6897      6892      6896      6898
      6892      6896      6899      6897      6896      6898      6897      6896      6899
      6898      6896      6899      6892      6900      6901      6892      6900      6902
      6892      6900      6903      6901      6900      6902      6901      6900      6903
      6902      6900      6903      6892      6904      6905      6892      6904      6906
      6892      6904      6907      6905      6904      6906      6905      6904      6907
      6906      6904      6907      6893      6908      6909      6893      6908      6910
      6893      6908      6914      6909      6908      6910      6909      6908      6914
      6910      6908      6914      6912      6911      6913      6912      6911      6914
      6912      6911      6915      6913      6911      6914      6913      6911      6915
      6914      6911      6915      6908      6914      6911      6911      6915      6916
      6915      6916      6917      6915      6916      6918      6915      6916      6919
      6917      6916      6918      6917      6916      6919      6918      6916      6919
      6916      6919      6920      6916      6919      6921      6916      6919      6927
      6920      6919      6921      6920      6919      6927      6921      6919      6927
      6919      6921      6922      6921      6922      6923      6921      6922      6924
      6923      6922      6924      6922      6924      6925      6922      6924      6926
      6922      6924      6936      6925      6924      6926      6925      6924      6936
      6926      6924      6936      6919      6927      6928      6919      6927      6929
      6919      6927      6930      6928      6927      6929      6928      6927      6930
      6929      6927      6930      6927      6930      6931      6930      6931      6932
      6930      6931      6933      6932      6931      6933      6931      6933      6934
      6931      6933      6935      6931      6933      6983      6934      6933      6935
      6934      6933      6983      6935      6933      6983      6924      6936      6937
      6924      6936      6938      6924      6936      6939      6937      6936      6938
      6937      6936      6939      6938      6936      6939      6936      6939      6940
      6936      6939      6941      6936      6939      6942      6940      6939      6941
      6940      6939      6942      6941      6939      6942      6939      6942      6943
      6939      6942      6944      6939      6942      6945      6943      6942      6944
      6943      6942      6945      6944      6942      6945      6942      6945      6946
      6942      6945      6947      6942      6945      6948      6946      6945      6947
      6946      6945      6948      6947      6945      6948      6945      6948      6949
      6945      6948      6950      6945      6948      6951      6949      6948      6950
      6949      6948      6951      6950      6948      6951      6948      6951      6952
      6948      6951      6953      6948      6951      6954      6952      6951      6953
      6952      6951      6954      6953      6951      6954      6951      6954      6955
      6951      6954      6956      6955      6954      6956      6954      6956      6957
      6954      6956      6958      6957      6956      6958      6956      6958      6959
      6956      6958      6960      6956      6958      6961      6959      6958      6960
      6959      6958      6961      6960      6958      6961      6958      6961      6962
      6958      6961      6963      6958      6961      6964      6962      6961      6963
      6962      6961      6964      6963      6961      6964      6961      6964      6965
      6961      6964      6966      6961      6964      6967      6965      6964      6966
      6965      6964      6967      6966      6964      6967      6964      6967      6968
      6964      6967      6969      6964      6967      6970      6968      6967      6969
      6968      6967      6970      6969      6967      6970      6967      6970      6971
      6967      6970      6972      6967      6970      6973      6971      6970      6972
      6971      6970      6973      6972      6970      6973      6970      6973      6974
      6970      6973      6975      6970      6973      6976      6974      6973      6975
      6974      6973      6976      6975      6973      6976      6973      6976      6977
      6973      6976      6978      6973      6976      6979      6977      6976      6978
      6977      6976      6979      6978      6976      6979      6976      6979      6980
      6976      6979      6981      6976      6979      6982      6980      6979      6981
      6980      6979      6982      6981      6979      6982      6933      6983      6984
      6933      6983      6985      6933      6983      6986      6984      6983      6985
      6984      6983      6986      6985      6983      6986      6983      6986      6987
      6983      6986      6988      6983      6986      6989      6987      6986      6988
      6987      6986      6989      6988      6986      6989      6986      6989      6990
      6986      6989      6991      6986      6989      6992      6990      6989      6991
      6990      6989      6992      6991      6989      6992      6989      6992      6993
      6989      6992      6994      6989      6992      6995      6993      6992      6994
      6993      6992      6995      6994      6992      6995      6992      6995      6996
      6992      6995      6997      6992      6995      6998      6996      6995      6997
      6996      6995      6998      6997      6995      6998      6995      6998      6999
      6995      6998      7000      6995      6998      7001      6999      6998      7000
      6999      6998      7001      7000      6998      7001      6998      7001      7002
      6998      7001      7003      6998      7001      7004      7002      7001      7003
      7002      7001      7004      7003      7001      7004      7001      7004      7005
      7001      7004      7006      7001      7004      7007      7005      7004      7006
      7005      7004      7007      7006      7004      7007      7004      7007      7008
      7004      7007      7009      7004      7007      7010      7008      7007      7009
      7008      7007      7010      7009      7007      7010      7007      7010      7011
      7007      7010      7012      7007      7010      7013      7011      7010      7012
      7011      7010      7013      7012      7010      7013      7010      7013      7014
      7010      7013      7015      7010      7013      7016      7014      7013      7015
      7014      7013      7016      7015      7013      7016      7013      7016      7017
      7013      7016      7018      7013      7016      7019      7017      7016      7018
      7017      7016      7019      7018      7016      7019      7016      7019      7020
      7016      7019      7021      7016      7019      7022      7020      7019      7021
      7020      7019      7022      7021      7019      7022      7019      7022      7023
      7019      7022      7024      7019      7022      7025      7023      7022      7024
      7023      7022      7025      7024      7022      7025      7027      7026      7028
      7027      7026      7029      7027      7026      7030      7028      7026      7029
      7028      7026      7030      7029      7026      7030      7026      7030      7031
      7026      7030      7032      7026      7030      7035      7031      7030      7032
      7031      7030      7035      7032      7030      7035      7030      7032      7033
      7030      7032      7034      7033      7032      7034      7030      7035      7036
      7030      7035      7037      7030      7035      7041      7036      7035      7037
      7036      7035      7041      7037      7035      7041      7039      7038      7040
      7039      7038      7041      7039      7038      7042      7040      7038      7041
      7040      7038      7042      7041      7038      7042      7035      7041      7038
      7038      7042      7043      7042      7043      7044      7042      7043      7045
      7042      7043      7046      7044      7043      7045      7044      7043      7046
      7045      7043      7046      7043      7046      7047      7043      7046      7048
      7043      7046      7054      7047      7046      7048      7047      7046      7054
      7048      7046      7054      7046      7048      7049      7048      7049      7050
      7048      7049      7051      7050      7049      7051      7049      7051      7052
      7049      7051      7053      7049      7051      7063      7052      7051      7053
      7052      7051      7063      7053      7051      7063      7046      7054      7055
      7046      7054      7056      7046      7054      7057      7055      7054      7056
      7055      7054      7057      7056      7054      7057      7054      7057      7058
      7057      7058      7059      7057      7058      7060      7059      7058      7060
      7058      7060      7061      7058      7060      7062      7058      7060      7110
      7061      7060      7062      7061      7060      7110      7062      7060      7110
      7051      7063      7064      7051      7063      7065      7051      7063      7066
      7064      7063      7065      7064      7063      7066      7065      7063      7066
      7063      7066      7067      7063      7066      7068      7063      7066      7069
      7067      7066      7068      7067      7066      7069      7068      7066      7069
      7066      7069      7070      7066      7069      7071      7066      7069      7072
      7070      7069      7071      7070      7069      7072      7071      7069      7072
      7069      7072      7073      7069      7072      7074      7069      7072      7075
      7073      7072      7074      7073      7072      7075      7074      7072      7075
      7072      7075      7076      7072      7075      7077      7072      7075      7078
      7076      7075      7077      7076      7075      7078      7077      7075      7078
      7075      7078      7079      7075      7078      7080      7075      7078      7081
      7079      7078      7080      7079      7078      7081      7080      7078      7081
      7078      7081      7082      7078      7081      7083      7082      7081      7083
      7081      7083      7084      7081      7083      7085      7084      7083      7085
      7083      7085      7086      7083      7085      7087      7083      7085      7088
      7086      7085      7087      7086      7085      7088      7087      7085      7088
      7085      7088      7089      7085      7088      7090      7085      7088      7091
      7089      7088      7090      7089      7088      7091      7090      7088      7091
      7088      7091      7092      7088      7091      7093      7088      7091      7094
      7092      7091      7093      7092      7091      7094      7093      7091      7094
      7091      7094      7095      7091      7094      7096      7091      7094      7097
      7095      7094      7096      7095      7094      7097      7096      7094      7097
      7094      7097      7098      7094      7097      7099      7094      7097      7100
      7098      7097      7099      7098      7097      7100      7099      7097      7100
      7097      7100      7101      7097      7100      7102      7097      7100      7103
      7101      7100      7102      7101      7100      7103      7102      7100      7103
      7100      7103      7104      7100      7103      7105      7100      7103      7106
      7104      7103      7105      7104      7103      7106      7105      7103      7106
      7103      7106      7107      7103      7106      7108      7103      7106      7109
      7107      7106      7108      7107      7106      7109      7108      7106      7109
      7060      7110      7111      7060      7110      7112      7060      7110      7113
      7111      7110      7112      7111      7110      7113      7112      7110      7113
      7110      7113      7114      7110      7113      7115      7110      7113      7116
      7114      7113      7115      7114      7113      7116      7115      7113      7116
      7113      7116      7117      7113      7116      7118      7113      7116      7119
      7117      7116      7118      7117      7116      7119      7118      7116      7119
      7116      7119      7120      7116      7119      7121      7116      7119      7122
      7120      7119      7121      7120      7119      7122      7121      7119      7122
      7119      7122      7123      7119      7122      7124      7119      7122      7125
      7123      7122      7124      7123      7122      7125      7124      7122      7125
      7122      7125      7126      7122      7125      7127      7122      7125      7128
      7126      7125      7127      7126      7125      7128      7127      7125      7128
      7125      7128      7129      7125      7128      7130      7125      7128      7131
      7129      7128      7130      7129      7128      7131      7130      7128      7131
      7128      7131      7132      7128      7131      7133      7128      7131      7134
      7132      7131      7133      7132      7131      7134      7133      7131      7134
      7131      7134      7135      7131      7134      7136      7131      7134      7137
      7135      7134      7136      7135      7134      7137      7136      7134      7137
      7134      7137      7138      7134      7137      7139      7134      7137      7140
      7138      7137      7139      7138      7137      7140      7139      7137      7140
      7137      7140      7141      7137      7140      7142      7137      7140      7143
      7141      7140      7142      7141      7140      7143      7142      7140      7143
      7140      7143      7144      7140      7143      7145      7140      7143      7146
      7144      7143      7145      7144      7143      7146      7145      7143      7146
      7143      7146      7147      7143      7146      7148      7143      7146      7149
      7147      7146      7148      7147      7146      7149      7148      7146      7149
      7146      7149      7150      7146      7149      7151      7146      7149      7152
      7150      7149      7151      7150      7149      7152      7151      7149      7152
      7154      7153      7157      7154      7153      7161      7154      7153      7165
      7157      7153      7161      7157      7153      7165      7161      7153      7165
      7153      7154      7155      7153      7154      7156      7153      7154      7169
      7155      7154      7156      7155      7154      7169      7156      7154      7169
      7153      7157      7158      7153      7157      7159      7153      7157      7160
      7158      7157      7159      7158      7157      7160      7159      7157      7160
      7153      7161      7162      7153      7161      7163      7153      7161      7164
      7162      7161      7163      7162      7161      7164      7163      7161      7164
      7153      7165      7166      7153      7165      7167      7153      7165      7168
      7166      7165      7167      7166      7165      7168      7167      7165      7168
      7154      7169      7170      7154      7169      7171      7154      7169      7175
      7170      7169      7171      7170      7169      7175      7171      7169      7175
      7173      7172      7174      7173      7172      7175      7173      7172      7176
      7174      7172      7175      7174      7172      7176      7175      7172      7176
      7169      7175      7172      7172      7176      7177      7176      7177      7178
      7176      7177      7179      7176      7177      7180      7178      7177      7179
      7178      7177      7180      7179      7177      7180      7177      7180      7181
      7177      7180      7182      7177      7180      7188      7181      7180      7182
      7181      7180      7188      7182      7180      7188      7180      7182      7183
      7182      7183      7184      7182      7183      7185      7184      7183      7185
      7183      7185      7186      7183      7185      7187      7183      7185      7197
      7186      7185      7187      7186      7185      7197      7187      7185      7197
      7180      7188      7189      7180      7188      7190      7180      7188      7191
      7189      7188      7190      7189      7188      7191      7190      7188      7191
      7188      7191      7192      7191      7192      7193      7191      7192      7194
      7193      7192      7194      7192      7194      7195      7192      7194      7196
      7192      7194      7244      7195      7194      7196      7195      7194      7244
      7196      7194      7244      7185      7197      7198      7185      7197      7199
      7185      7197      7200      7198      7197      7199      7198      7197      7200
      7199      7197      7200      7197      7200      7201      7197      7200      7202
      7197      7200      7203      7201      7200      7202      7201      7200      7203
      7202      7200      7203      7200      7203      7204      7200      7203      7205
      7200      7203      7206      7204      7203      7205      7204      7203      7206
      7205      7203      7206      7203      7206      7207      7203      7206      7208
      7203      7206      7209      7207      7206      7208      7207      7206      7209
      7208      7206      7209      7206      7209      7210      7206      7209      7211
      7206      7209      7212      7210      7209      7211      7210      7209      7212
      7211      7209      7212      7209      7212      7213      7209      7212      7214
      7209      7212      7215      7213      7212      7214      7213      7212      7215
      7214      7212      7215      7212      7215      7216      7212      7215      7217
      7216      7215      7217      7215      7217      7218      7215      7217      7219
      7218      7217      7219      7217      7219      7220      7217      7219      7221
      7217      7219      7222      7220      7219      7221      7220      7219      7222
      7221      7219      7222      7219      7222      7223      7219      7222      7224
      7219      7222      7225      7223      7222      7224      7223      7222      7225
      7224      7222      7225      7222      7225      7226      7222      7225      7227
      7222      7225      7228      7226      7225      7227      7226      7225      7228
      7227      7225      7228      7225      7228      7229      7225      7228      7230
      7225      7228      7231      7229      7228      7230      7229      7228      7231
      7230      7228      7231      7228      7231      7232      7228      7231      7233
      7228      7231      7234      7232      7231      7233      7232      7231      7234
      7233      7231      7234      7231      7234      7235      7231      7234      7236
      7231      7234      7237      7235      7234      7236      7235      7234      7237
      7236      7234      7237      7234      7237      7238      7234      7237      7239
      7234      7237      7240      7238      7237      7239      7238      7237      7240
      7239      7237      7240      7237      7240      7241      7237      7240      7242
      7237      7240      7243      7241      7240      7242      7241      7240      7243
      7242      7240      7243      7194      7244      7245      7194      7244      7246
      7194      7244      7247      7245      7244      7246      7245      7244      7247
      7246      7244      7247      7244      7247      7248      7244      7247      7249
      7244      7247      7250      7248      7247      7249      7248      7247      7250
      7249      7247      7250      7247      7250      7251      7247      7250      7252
      7247      7250      7253      7251      7250      7252      7251      7250      7253
      7252      7250      7253      7250      7253      7254      7250      7253      7255
      7250      7253      7256      7254      7253      7255      7254      7253      7256
      7255      7253      7256      7253      7256      7257      7253      7256      7258
      7253      7256      7259      7257      7256      7258      7257      7256      7259
      7258      7256      7259      7256      7259      7260      7256      7259      7261
      7256      7259      7262      7260      7259      7261      7260      7259      7262
      7261      7259      7262      7259      7262      7263      7259      7262      7264
      7259      7262      7265      7263      7262      7264      7263      7262      7265
      7264      7262      7265      7262      7265      7266      7262      7265      7267
      7262      7265      7268      7266      7265      7267      7266      7265      7268
      7267      7265      7268      7265      7268      7269      7265      7268      7270
      7265      7268      7271      7269      7268      7270      7269      7268      7271
      7270      7268      7271      7268      7271      7272      7268      7271      7273
      7268      7271      7274      7272      7271      7273      7272      7271      7274
      7273      7271      7274      7271      7274      7275      7271      7274      7276
      7271      7274      7277      7275      7274      7276      7275      7274      7277
      7276      7274      7277      7274      7277      7278      7274      7277      7279
      7274      7277      7280      7278      7277      7279      7278      7277      7280
      7279      7277      7280      7277      7280      7281      7277      7280      7282
      7277      7280      7283      7281      7280      7282      7281      7280      7283
      7282      7280      7283      7280      7283      7284      7280      7283      7285
      7280      7283      7286      7284      7283      7285      7284      7283      7286
      7285      7283      7286      7288      7287      7291      7288      7287      7295
      7288      7287      7299      7291      7287      7295      7291      7287      7299
      7295      7287      7299      7287      7288      7289      7287      7288      7290
      7287      7288      7303      7289      7288      7290      7289      7288      7303
      7290      7288      7303      7287      7291      7292      7287      7291      7293
      7287      7291      7294      7292      7291      7293      7292      7291      7294
      7293      7291      7294      7287      7295      7296      7287      7295      7297
      7287      7295      7298      7296      7295      7297      7296      7295      7298
      7297      7295      7298      7287      7299      7300      7287      7299      7301
      7287      7299      7302      7300      7299      7301      7300      7299      7302
      7301      7299      7302      7288      7303      7304      7288      7303      7305
      7288      7303      7309      7304      7303      7305      7304      7303      7309
      7305      7303      7309      7307      7306      7308      7307      7306      7309
      7307      7306      7310      7308      7306      7309      7308      7306      7310
      7309      7306      7310      7303      7309      7306      7306      7310      7311
      7310      7311      7312      7310      7311      7313      7310      7311      7314
      7312      7311      7313      7312      7311      7314      7313      7311      7314
      7311      7314      7315      7311      7314      7316      7311      7314      7322
      7315      7314      7316      7315      7314      7322      7316      7314      7322
      7314      7316      7317      7316      7317      7318      7316      7317      7319
      7318      7317      7319      7317      7319      7320      7317      7319      7321
      7317      7319      7331      7320      7319      7321      7320      7319      7331
      7321      7319      7331      7314      7322      7323      7314      7322      7324
      7314      7322      7325      7323      7322      7324      7323      7322      7325
      7324      7322      7325      7322      7325      7326      7325      7326      7327
      7325      7326      7328      7327      7326      7328      7326      7328      7329
      7326      7328      7330      7326      7328      7378      7329      7328      7330
      7329      7328      7378      7330      7328      7378      7319      7331      7332
      7319      7331      7333      7319      7331      7334      7332      7331      7333
      7332      7331      7334      7333      7331      7334      7331      7334      7335
      7331      7334      7336      7331      7334      7337      7335      7334      7336
      7335      7334      7337      7336      7334      7337      7334      7337      7338
      7334      7337      7339      7334      7337      7340      7338      7337      7339
      7338      7337      7340      7339      7337      7340      7337      7340      7341
      7337      7340      7342      7337      7340      7343      7341      7340      7342
      7341      7340      7343      7342      7340      7343      7340      7343      7344
      7340      7343      7345      7340      7343      7346      7344      7343      7345
      7344      7343      7346      7345      7343      7346      7343      7346      7347
      7343      7346      7348      7343      7346      7349      7347      7346      7348
      7347      7346      7349      7348      7346      7349      7346      7349      7350
      7346      7349      7351      7350      7349      7351      7349      7351      7352
      7349      7351      7353      7352      7351      7353      7351      7353      7354
      7351      7353      7355      7351      7353      7356      7354      7353      7355
      7354      7353      7356      7355      7353      7356      7353      7356      7357
      7353      7356      7358      7353      7356      7359      7357      7356      7358
      7357      7356      7359      7358      7356      7359      7356      7359      7360
      7356      7359      7361      7356      7359      7362      7360      7359      7361
      7360      7359      7362      7361      7359      7362      7359      7362      7363
      7359      7362      7364      7359      7362      7365      7363      7362      7364
      7363      7362      7365      7364      7362      7365      7362      7365      7366
      7362      7365      7367      7362      7365      7368      7366      7365      7367
      7366      7365      7368      7367      7365      7368      7365      7368      7369
      7365      7368      7370      7365      7368      7371      7369      7368      7370
      7369      7368      7371      7370      7368      7371      7368      7371      7372
      7368      7371      7373      7368      7371      7374      7372      7371      7373
      7372      7371      7374      7373      7371      7374      7371      7374      7375
      7371      7374      7376      7371      7374      7377      7375      7374      7376
      7375      7374      7377      7376      7374      7377      7328      7378      7379
      7328      7378      7380      7328      7378      7381      7379      7378      7380
      7379      7378      7381      7380      7378      7381      7378      7381      7382
      7378      7381      7383      7378      7381      7384      7382      7381      7383
      7382      7381      7384      7383      7381      7384      7381      7384      7385
      7381      7384      7386      7381      7384      7387      7385      7384      7386
      7385      7384      7387      7386      7384      7387      7384      7387      7388
      7384      7387      7389      7384      7387      7390      7388      7387      7389
      7388      7387      7390      7389      7387      7390      7387      7390      7391
      7387      7390      7392      7387      7390      7393      7391      7390      7392
      7391      7390      7393      7392      7390      7393      7390      7393      7394
      7390      7393      7395      7390      7393      7396      7394      7393      7395
      7394      7393      7396      7395      7393      7396      7393      7396      7397
      7393      7396      7398      7393      7396      7399      7397      7396      7398
      7397      7396      7399      7398      7396      7399      7396      7399      7400
      7396      7399      7401      7396      7399      7402      7400      7399      7401
      7400      7399      7402      7401      7399      7402      7399      7402      7403
      7399      7402      7404      7399      7402      7405      7403      7402      7404
      7403      7402      7405      7404      7402      7405      7402      7405      7406
      7402      7405      7407      7402      7405      7408      7406      7405      7407
      7406      7405      7408      7407      7405      7408      7405      7408      7409
      7405      7408      7410      7405      7408      7411      7409      7408      7410
      7409      7408      7411      7410      7408      7411      7408      7411      7412
      7408      7411      7413      7408      7411      7414      7412      7411      7413
      7412      7411      7414      7413      7411      7414      7411      7414      7415
      7411      7414      7416      7411      7414      7417      7415      7414      7416
      7415      7414      7417      7416      7414      7417      7414      7417      7418
      7414      7417      7419      7414      7417      7420      7418      7417      7419
      7418      7417      7420      7419      7417      7420      7422      7421      7423
      7422      7421      7424      7422      7421      7425      7423      7421      7424
      7423      7421      7425      7424      7421      7425      7421      7425      7426
      7421      7425      7427      7421      7425      7430      7426      7425      7427
      7426      7425      7430      7427      7425      7430      7425      7427      7428
      7425      7427      7429      7428      7427      7429      7425      7430      7431
      7425      7430      7432      7425      7430      7436      7431      7430      7432
      7431      7430      7436      7432      7430      7436      7434      7433      7435
      7434      7433      7436      7434      7433      7437      7435      7433      7436
      7435      7433      7437      7436      7433      7437      7430      7436      7433
      7433      7437      7438      7437      7438      7439      7437      7438      7440
      7437      7438      7441      7439      7438      7440      7439      7438      7441
      7440      7438      7441      7438      7441      7442      7438      7441      7443
      7438      7441      7449      7442      7441      7443      7442      7441      7449
      7443      7441      7449      7441      7443      7444      7443      7444      7445
      7443      7444      7446      7445      7444      7446      7444      7446      7447
      7444      7446      7448      7444      7446      7458      7447      7446      7448
      7447      7446      7458      7448      7446      7458      7441      7449      7450
      7441      7449      7451      7441      7449      7452      7450      7449      7451
      7450      7449      7452      7451      7449      7452      7449      7452      7453
      7452      7453      7454      7452      7453      7455      7454      7453      7455
      7453      7455      7456      7453      7455      7457      7453      7455      7505
      7456      7455      7457      7456      7455      7505      7457      7455      7505
      7446      7458      7459      7446      7458      7460      7446      7458      7461
      7459      7458      7460      7459      7458      7461      7460      7458      7461
      7458      7461      7462      7458      7461      7463      7458      7461      7464
      7462      7461      7463      7462      7461      7464      7463      7461      7464
      7461      7464      7465      7461      7464      7466      7461      7464      7467
      7465      7464      7466      7465      7464      7467      7466      7464      7467
      7464      7467      7468      7464      7467      7469      7464      7467      7470
      7468      7467      7469      7468      7467      7470      7469      7467      7470
      7467      7470      7471      7467      7470      7472      7467      7470      7473
      7471      7470      7472      7471      7470      7473      7472      7470      7473
      7470      7473      7474      7470      7473      7475      7470      7473      7476
      7474      7473      7475      7474      7473      7476      7475      7473      7476
      7473      7476      7477      7473      7476      7478      7477      7476      7478
      7476      7478      7479      7476      7478      7480      7479      7478      7480
      7478      7480      7481      7478      7480      7482      7478      7480      7483
      7481      7480      7482      7481      7480      7483      7482      7480      7483
      7480      7483      7484      7480      7483      7485      7480      7483      7486
      7484      7483      7485      7484      7483      7486      7485      7483      7486
      7483      7486      7487      7483      7486      7488      7483      7486      7489
      7487      7486      7488      7487      7486      7489      7488      7486      7489
      7486      7489      7490      7486      7489      7491      7486      7489      7492
      7490      7489      7491      7490      7489      7492      7491      7489      7492
      7489      7492      7493      7489      7492      7494      7489      7492      7495
      7493      7492      7494      7493      7492      7495      7494      7492      7495
      7492      7495      7496      7492      7495      7497      7492      7495      7498
      7496      7495      7497      7496      7495      7498      7497      7495      7498
      7495      7498      7499      7495      7498      7500      7495      7498      7501
      7499      7498      7500      7499      7498      7501      7500      7498      7501
      7498      7501      7502      7498      7501      7503      7498      7501      7504
      7502      7501      7503      7502      7501      7504      7503      7501      7504
      7455      7505      7506      7455      7505      7507      7455      7505      7508
      7506      7505      7507      7506      7505      7508      7507      7505      7508
      7505      7508      7509      7505      7508      7510      7505      7508      7511
      7509      7508      7510      7509      7508      7511      7510      7508      7511
      7508      7511      7512      7508      7511      7513      7508      7511      7514
      7512      7511      7513      7512      7511      7514      7513      7511      7514
      7511      7514      7515      7511      7514      7516      7511      7514      7517
      7515      7514      7516      7515      7514      7517      7516      7514      7517
      7514      7517      7518      7514      7517      7519      7514      7517      7520
      7518      7517      7519      7518      7517      7520      7519      7517      7520
      7517      7520      7521      7517      7520      7522      7517      7520      7523
      7521      7520      7522      7521      7520      7523      7522      7520      7523
      7520      7523      7524      7520      7523      7525      7520      7523      7526
      7524      7523      7525      7524      7523      7526      7525      7523      7526
      7523      7526      7527      7523      7526      7528      7523      7526      7529
      7527      7526      7528      7527      7526      7529      7528      7526      7529
      7526      7529      7530      7526      7529      7531      7526      7529      7532
      7530      7529      7531      7530      7529      7532      7531      7529      7532
      7529      7532      7533      7529      7532      7534      7529      7532      7535
      7533      7532      7534      7533      7532      7535      7534      7532      7535
      7532      7535      7536      7532      7535      7537      7532      7535      7538
      7536      7535      7537      7536      7535      7538      7537      7535      7538
      7535      7538      7539      7535      7538      7540      7535      7538      7541
      7539      7538      7540      7539      7538      7541      7540      7538      7541
      7538      7541      7542      7538      7541      7543      7538      7541      7544
      7542      7541      7543      7542      7541      7544      7543      7541      7544
      7541      7544      7545      7541      7544      7546      7541      7544      7547
      7545      7544      7546      7545      7544      7547      7546      7544      7547
      7549      7548      7552      7549      7548      7556      7549      7548      7560
      7552      7548      7556      7552      7548      7560      7556      7548      7560
      7548      7549      7550      7548      7549      7551      7548      7549      7564
      7550      7549      7551      7550      7549      7564      7551      7549      7564
      7548      7552      7553      7548      7552      7554      7548      7552      7555
      7553      7552      7554      7553      7552      7555      7554      7552      7555
      7548      7556      7557      7548      7556      7558      7548      7556      7559
      7557      7556      7558      7557      7556      7559      7558      7556      7559
      7548      7560      7561      7548      7560      7562      7548      7560      7563
      7561      7560      7562      7561      7560      7563      7562      7560      7563
      7549      7564      7565      7549      7564      7566      7549      7564      7570
      7565      7564      7566      7565      7564      7570      7566      7564      7570
      7568      7567      7569      7568      7567      7570      7568      7567      7571
      7569      7567      7570      7569      7567      7571      7570      7567      7571
      7564      7570      7567      7567      7571      7572      7571      7572      7573
      7571      7572      7574      7571      7572      7575      7573      7572      7574
      7573      7572      7575      7574      7572      7575      7572      7575      7576
      7572      7575      7577      7572      7575      7583      7576      7575      7577
      7576      7575      7583      7577      7575      7583      7575      7577      7578
      7577      7578      7579      7577      7578      7580      7579      7578      7580
      7578      7580      7581      7578      7580      7582      7578      7580      7592
      7581      7580      7582      7581      7580      7592      7582      7580      7592
      7575      7583      7584      7575      7583      7585      7575      7583      7586
      7584      7583      7585      7584      7583      7586      7585      7583      7586
      7583      7586      7587      7586      7587      7588      7586      7587      7589
      7588      7587      7589      7587      7589      7590      7587      7589      7591
      7587      7589      7639      7590      7589      7591      7590      7589      7639
      7591      7589      7639      7580      7592      7593      7580      7592      7594
      7580      7592      7595      7593      7592      7594      7593      7592      7595
      7594      7592      7595      7592      7595      7596      7592      7595      7597
      7592      7595      7598      7596      7595      7597      7596      7595      7598
      7597      7595      7598      7595      7598      7599      7595      7598      7600
      7595      7598      7601      7599      7598      7600      7599      7598      7601
      7600      7598      7601      7598      7601      7602      7598      7601      7603
      7598      7601      7604      7602      7601      7603      7602      7601      7604
      7603      7601      7604      7601      7604      7605      7601      7604      7606
      7601      7604      7607      7605      7604      7606      7605      7604      7607
      7606      7604      7607      7604      7607      7608      7604      7607      7609
      7604      7607      7610      7608      7607      7609      7608      7607      7610
      7609      7607      7610      7607      7610      7611      7607      7610      7612
      7611      7610      7612      7610      7612      7613      7610      7612      7614
      7613      7612      7614      7612      7614      7615      7612      7614      7616
      7612      7614      7617      7615      7614      7616      7615      7614      7617
      7616      7614      7617      7614      7617      7618      7614      7617      7619
      7614      7617      7620      7618      7617      7619      7618      7617      7620
      7619      7617      7620      7617      7620      7621      7617      7620      7622
      7617      7620      7623      7621      7620      7622      7621      7620      7623
      7622      7620      7623      7620      7623      7624      7620      7623      7625
      7620      7623      7626      7624      7623      7625      7624      7623      7626
      7625      7623      7626      7623      7626      7627      7623      7626      7628
      7623      7626      7629      7627      7626      7628      7627      7626      7629
      7628      7626      7629      7626      7629      7630      7626      7629      7631
      7626      7629      7632      7630      7629      7631      7630      7629      7632
      7631      7629      7632      7629      7632      7633      7629      7632      7634
      7629      7632      7635      7633      7632      7634      7633      7632      7635
      7634      7632      7635      7632      7635      7636      7632      7635      7637
      7632      7635      7638      7636      7635      7637      7636      7635      7638
      7637      7635      7638      7589      7639      7640      7589      7639      7641
      7589      7639      7642      7640      7639      7641      7640      7639      7642
      7641      7639      7642      7639      7642      7643      7639      7642      7644
      7639      7642      7645      7643      7642      7644      7643      7642      7645
      7644      7642      7645      7642      7645      7646      7642      7645      7647
      7642      7645      7648      7646      7645      7647      7646      7645      7648
      7647      7645      7648      7645      7648      7649      7645      7648      7650
      7645      7648      7651      7649      7648      7650      7649      7648      7651
      7650      7648      7651      7648      7651      7652      7648      7651      7653
      7648      7651      7654      7652      7651      7653      7652      7651      7654
      7653      7651      7654      7651      7654      7655      7651      7654      7656
      7651      7654      7657      7655      7654      7656      7655      7654      7657
      7656      7654      7657      7654      7657      7658      7654      7657      7659
      7654      7657      7660      7658      7657      7659      7658      7657      7660
      7659      7657      7660      7657      7660      7661      7657      7660      7662
      7657      7660      7663      7661      7660      7662      7661      7660      7663
      7662      7660      7663      7660      7663      7664      7660      7663      7665
      7660      7663      7666      7664      7663      7665      7664      7663      7666
      7665      7663      7666      7663      7666      7667      7663      7666      7668
      7663      7666      7669      7667      7666      7668      7667      7666      7669
      7668      7666      7669      7666      7669      7670      7666      7669      7671
      7666      7669      7672      7670      7669      7671      7670      7669      7672
      7671      7669      7672      7669      7672      7673      7669      7672      7674
      7669      7672      7675      7673      7672      7674      7673      7672      7675
      7674      7672      7675      7672      7675      7676      7672      7675      7677
      7672      7675      7678      7676      7675      7677      7676      7675      7678
      7677      7675      7678      7675      7678      7679      7675      7678      7680
      7675      7678      7681      7679      7678      7680      7679      7678      7681
      7680      7678      7681      7683      7682      7686      7683      7682      7690
      7683      7682      7694      7686      7682      7690      7686      7682      7694
      7690      7682      7694      7682      7683      7684      7682      7683      7685
      7682      7683      7698      7684      7683      7685      7684      7683      7698
      7685      7683      7698      7682      7686      7687      7682      7686      7688
      7682      7686      7689      7687      7686      7688      7687      7686      7689
      7688      7686      7689      7682      7690      7691      7682      7690      7692
      7682      7690      7693      7691      7690      7692      7691      7690      7693
      7692      7690      7693      7682      7694      7695      7682      7694      7696
      7682      7694      7697      7695      7694      7696      7695      7694      7697
      7696      7694      7697      7683      7698      7699      7683      7698      7700
      7683      7698      7704      7699      7698      7700      7699      7698      7704
      7700      7698      7704      7702      7701      7703      7702      7701      7704
      7702      7701      7705      7703      7701      7704      7703      7701      7705
      7704      7701      7705      7698      7704      7701      7701      7705      7706
      7705      7706      7707      7705      7706      7708      7705      7706      7709
      7707      7706      7708      7707      7706      7709      7708      7706      7709
      7706      7709      7710      7706      7709      7711      7706      7709      7717
      7710      7709      7711      7710      7709      7717      7711      7709      7717
      7709      7711      7712      7711      7712      7713      7711      7712      7714
      7713      7712      7714      7712      7714      7715      7712      7714      7716
      7712      7714      7726      7715      7714      7716      7715      7714      7726
      7716      7714      7726      7709      7717      7718      7709      7717      7719
      7709      7717      7720      7718      7717      7719      7718      7717      7720
      7719      7717      7720      7717      7720      7721      7720      7721      7722
      7720      7721      7723      7722      7721      7723      7721      7723      7724
      7721      7723      7725      7721      7723      7773      7724      7723      7725
      7724      7723      7773      7725      7723      7773      7714      7726      7727
      7714      7726      7728      7714      7726      7729      7727      7726      7728
      7727      7726      7729      7728      7726      7729      7726      7729      7730
      7726      7729      7731      7726      7729      7732      7730      7729      7731
      7730      7729      7732      7731      7729      7732      7729      7732      7733
      7729      7732      7734      7729      7732      7735      7733      7732      7734
      7733      7732      7735      7734      7732      7735      7732      7735      7736
      7732      7735      7737      7732      7735      7738      7736      7735      7737
      7736      7735      7738      7737      7735      7738      7735      7738      7739
      7735      7738      7740      7735      7738      7741      7739      7738      7740
      7739      7738      7741      7740      7738      7741      7738      7741      7742
      7738      7741      7743      7738      7741      7744      7742      7741      7743
      7742      7741      7744      7743      7741      7744      7741      7744      7745
      7741      7744      7746      7745      7744      7746      7744      7746      7747
      7744      7746      7748      7747      7746      7748      7746      7748      7749
      7746      7748      7750      7746      7748      7751      7749      7748      7750
      7749      7748      7751      7750      7748      7751      7748      7751      7752
      7748      7751      7753      7748      7751      7754      7752      7751      7753
      7752      7751      7754      7753      7751      7754      7751      7754      7755
      7751      7754      7756      7751      7754      7757      7755      7754      7756
      7755      7754      7757      7756      7754      7757      7754      7757      7758
      7754      7757      7759      7754      7757      7760      7758      7757      7759
      7758      7757      7760      7759      7757      7760      7757      7760      7761
      7757      7760      7762      7757      7760      7763      7761      7760      7762
      7761      7760      7763      7762      7760      7763      7760      7763      7764
      7760      7763      7765      7760      7763      7766      7764      7763      7765
      7764      7763      7766      7765      7763      7766      7763      7766      7767
      7763      7766      7768      7763      7766      7769      7767      7766      7768
      7767      7766      7769      7768      7766      7769      7766      7769      7770
      7766      7769      7771      7766      7769      7772      7770      7769      7771
      7770      7769      7772      7771      7769      7772      7723      7773      7774
      7723      7773      7775      7723      7773      7776      7774      7773      7775
      7774      7773      7776      7775      7773      7776      7773      7776      7777
      7773      7776      7778      7773      7776      7779      7777      7776      7778
      7777      7776      7779      7778      7776      7779      7776      7779      7780
      7776      7779      7781      7776      7779      7782      7780      7779      7781
      7780      7779      7782      7781      7779      7782      7779      7782      7783
      7779      7782      7784      7779      7782      7785      7783      7782      7784
      7783      7782      7785      7784      7782      7785      7782      7785      7786
      7782      7785      7787      7782      7785      7788      7786      7785      7787
      7786      7785      7788      7787      7785      7788      7785      7788      7789
      7785      7788      7790      7785      7788      7791      7789      7788      7790
      7789      7788      7791      7790      7788      7791      7788      7791      7792
      7788      7791      7793      7788      7791      7794      7792      7791      7793
      7792      7791      7794      7793      7791      7794      7791      7794      7795
      7791      7794      7796      7791      7794      7797      7795      7794      7796
      7795      7794      7797      7796      7794      7797      7794      7797      7798
      7794      7797      7799      7794      7797      7800      7798      7797      7799
      7798      7797      7800      7799      7797      7800      7797      7800      7801
      7797      7800      7802      7797      7800      7803      7801      7800      7802
      7801      7800      7803      7802      7800      7803      7800      7803      7804
      7800      7803      7805      7800      7803      7806      7804      7803      7805
      7804      7803      7806      7805      7803      7806      7803      7806      7807
      7803      7806      7808      7803      7806      7809      7807      7806      7808
      7807      7806      7809      7808      7806      7809      7806      7809      7810
      7806      7809      7811      7806      7809      7812      7810      7809      7811
      7810      7809      7812      7811      7809      7812      7809      7812      7813
      7809      7812      7814      7809      7812      7815      7813      7812      7814
      7813      7812      7815      7814      7812      7815      7817      7816      7820
      7817      7816      7824      7817      7816      7828      7820      7816      7824
      7820      7816      7828      7824      7816      7828      7816      7817      7818
      7816      7817      7819      7816      7817      7832      7818      7817      7819
      7818      7817      7832      7819      7817      7832      7816      7820      7821
      7816      7820      7822      7816      7820      7823      7821      7820      7822
      7821      7820      7823      7822      7820      7823      7816      7824      7825
      7816      7824      7826      7816      7824      7827      7825      7824      7826
      7825      7824      7827      7826      7824      7827      7816      7828      7829
      7816      7828      7830      7816      7828      7831      7829      7828      7830
      7829      7828      7831      7830      7828      7831      7817      7832      7833
      7817      7832      7834      7817      7832      7838      7833      7832      7834
      7833      7832      7838      7834      7832      7838      7836      7835      7837
      7836      7835      7838      7836      7835      7839      7837      7835      7838
      7837      7835      7839      7838      7835      7839      7832      7838      7835
      7835      7839      7840      7839      7840      7841      7839      7840      7842
      7839      7840      7843      7841      7840      7842      7841      7840      7843
      7842      7840      7843      7840      7843      7844      7840      7843      7845
      7840      7843      7851      7844      7843      7845      7844      7843      7851
      7845      7843      7851      7843      7845      7846      7845      7846      7847
      7845      7846      7848      7847      7846      7848      7846      7848      7849
      7846      7848      7850      7846      7848      7860      7849      7848      7850
      7849      7848      7860      7850      7848      7860      7843      7851      7852
      7843      7851      7853      7843      7851      7854      7852      7851      7853
      7852      7851      7854      7853      7851      7854      7851      7854      7855
      7854      7855      7856      7854      7855      7857      7856      7855      7857
      7855      7857      7858      7855      7857      7859      7855      7857      7907
      7858      7857      7859      7858      7857      7907      7859      7857      7907
      7848      7860      7861      7848      7860      7862      7848      7860      7863
      7861      7860      7862      7861      7860      7863      7862      7860      7863
      7860      7863      7864      7860      7863      7865      7860      7863      7866
      7864      7863      7865      7864      7863      7866      7865      7863      7866
      7863      7866      7867      7863      7866      7868      7863      7866      7869
      7867      7866      7868      7867      7866      7869      7868      7866      7869
      7866      7869      7870      7866      7869      7871      7866      7869      7872
      7870      7869      7871      7870      7869      7872      7871      7869      7872
      7869      7872      7873      7869      7872      7874      7869      7872      7875
      7873      7872      7874      7873      7872      7875      7874      7872      7875
      7872      7875      7876      7872      7875      7877      7872      7875      7878
      7876      7875      7877      7876      7875      7878      7877      7875      7878
      7875      7878      7879      7875      7878      7880      7879      7878      7880
      7878      7880      7881      7878      7880      7882      7881      7880      7882
      7880      7882      7883      7880      7882      7884      7880      7882      7885
      7883      7882      7884      7883      7882      7885      7884      7882      7885
      7882      7885      7886      7882      7885      7887      7882      7885      7888
      7886      7885      7887      7886      7885      7888      7887      7885      7888
      7885      7888      7889      7885      7888      7890      7885      7888      7891
      7889      7888      7890      7889      7888      7891      7890      7888      7891
      7888      7891      7892      7888      7891      7893      7888      7891      7894
      7892      7891      7893      7892      7891      7894      7893      7891      7894
      7891      7894      7895      7891      7894      7896      7891      7894      7897
      7895      7894      7896      7895      7894      7897      7896      7894      7897
      7894      7897      7898      7894      7897      7899      7894      7897      7900
      7898      7897      7899      7898      7897      7900      7899      7897      7900
      7897      7900      7901      7897      7900      7902      7897      7900      7903
      7901      7900      7902      7901      7900      7903      7902      7900      7903
      7900      7903      7904      7900      7903      7905      7900      7903      7906
      7904      7903      7905      7904      7903      7906      7905      7903      7906
      7857      7907      7908      7857      7907      7909      7857      7907      7910
      7908      7907      7909      7908      7907      7910      7909      7907      7910
      7907      7910      7911      7907      7910      7912      7907      7910      7913
      7911      7910      7912      7911      7910      7913      7912      7910      7913
      7910      7913      7914      7910      7913      7915      7910      7913      7916
      7914      7913      7915      7914      7913      7916      7915      7913      7916
      7913      7916      7917      7913      7916      7918      7913      7916      7919
      7917      7916      7918      7917      7916      7919      7918      7916      7919
      7916      7919      7920      7916      7919      7921      7916      7919      7922
      7920      7919      7921      7920      7919      7922      7921      7919      7922
      7919      7922      7923      7919      7922      7924      7919      7922      7925
      7923      7922      7924      7923      7922      7925      7924      7922      7925
      7922      7925      7926      7922      7925      7927      7922      7925      7928
      7926      7925      7927      7926      7925      7928      7927      7925      7928
      7925      7928      7929      7925      7928      7930      7925      7928      7931
      7929      7928      7930      7929      7928      7931      7930      7928      7931
      7928      7931      7932      7928      7931      7933      7928      7931      7934
      7932      7931      7933      7932      7931      7934      7933      7931      7934
      7931      7934      7935      7931      7934      7936      7931      7934      7937
      7935      7934      7936      7935      7934      7937      7936      7934      7937
      7934      7937      7938      7934      7937      7939      7934      7937      7940
      7938      7937      7939      7938      7937      7940      7939      7937      7940
      7937      7940      7941      7937      7940      7942      7937      7940      7943
      7941      7940      7942      7941      7940      7943      7942      7940      7943
      7940      7943      7944      7940      7943      7945      7940      7943      7946
      7944      7943      7945      7944      7943      7946      7945      7943      7946
      7943      7946      7947      7943      7946      7948      7943      7946      7949
      7947      7946      7948      7947      7946      7949      7948      7946      7949
      7951      7950      7954      7951      7950      7958      7951      7950      7962
      7954      7950      7958      7954      7950      7962      7958      7950      7962
      7950      7951      7952      7950      7951      7953      7950      7951      7966
      7952      7951      7953      7952      7951      7966      7953      7951      7966
      7950      7954      7955      7950      7954      7956      7950      7954      7957
      7955      7954      7956      7955      7954      7957      7956      7954      7957
      7950      7958      7959      7950      7958      7960      7950      7958      7961
      7959      7958      7960      7959      7958      7961      7960      7958      7961
      7950      7962      7963      7950      7962      7964      7950      7962      7965
      7963      7962      7964      7963      7962      7965      7964      7962      7965
      7951      7966      7967      7951      7966      7968      7951      7966      7972
      7967      7966      7968      7967      7966      7972      7968      7966      7972
      7970      7969      7971      7970      7969      7972      7970      7969      7973
      7971      7969      7972      7971      7969      7973      7972      7969      7973
      7966      7972      7969      7969      7973      7974      7973      7974      7975
      7973      7974      7976      7973      7974      7977      7975      7974      7976
      7975      7974      7977      7976      7974      7977      7974      7977      7978
      7974      7977      7979      7974      7977      7985      7978      7977      7979
      7978      7977      7985      7979      7977      7985      7977      7979      7980
      7979      7980      7981      7979      7980      7982      7981      7980      7982
      7980      7982      7983      7980      7982      7984      7980      7982      7994
      7983      7982      7984      7983      7982      7994      7984      7982      7994
      7977      7985      7986      7977      7985      7987      7977      7985      7988
      7986      7985      7987      7986      7985      7988      7987      7985      7988
      7985      7988      7989      7988      7989      7990      7988      7989      7991
      7990      7989      7991      7989      7991      7992      7989      7991      7993
      7989      7991      8041      7992      7991      7993      7992      7991      8041
      7993      7991      8041      7982      7994      7995      7982      7994      7996
      7982      7994      7997      7995      7994      7996      7995      7994      7997
      7996      7994      7997      7994      7997      7998      7994      7997      7999
      7994      7997      8000      7998      7997      7999      7998      7997      8000
      7999      7997      8000      7997      8000      8001      7997      8000      8002
      7997      8000      8003      8001      8000      8002      8001      8000      8003
      8002      8000      8003      8000      8003      8004      8000      8003      8005
      8000      8003      8006      8004      8003      8005      8004      8003      8006
      8005      8003      8006      8003      8006      8007      8003      8006      8008
      8003      8006      8009      8007      8006      8008      8007      8006      8009
      8008      8006      8009      8006      8009      8010      8006      8009      8011
      8006      8009      8012      8010      8009      8011      8010      8009      8012
      8011      8009      8012      8009      8012      8013      8009      8012      8014
      8013      8012      8014      8012      8014      8015      8012      8014      8016
      8015      8014      8016      8014      8016      8017      8014      8016      8018
      8014      8016      8019      8017      8016      8018      8017      8016      8019
      8018      8016      8019      8016      8019      8020      8016      8019      8021
      8016      8019      8022      8020      8019      8021      8020      8019      8022
      8021      8019      8022      8019      8022      8023      8019      8022      8024
      8019      8022      8025      8023      8022      8024      8023      8022      8025
      8024      8022      8025      8022      8025      8026      8022      8025      8027
      8022      8025      8028      8026      8025      8027      8026      8025      8028
      8027      8025      8028      8025      8028      8029      8025      8028      8030
      8025      8028      8031      8029      8028      8030      8029      8028      8031
      8030      8028      8031      8028      8031      8032      8028      8031      8033
      8028      8031      8034      8032      8031      8033      8032      8031      8034
      8033      8031      8034      8031      8034      8035      8031      8034      8036
      8031      8034      8037      8035      8034      8036      8035      8034      8037
      8036      8034      8037      8034      8037      8038      8034      8037      8039
      8034      8037      8040      8038      8037      8039      8038      8037      8040
      8039      8037      8040      7991      8041      8042      7991      8041      8043
      7991      8041      8044      8042      8041      8043      8042      8041      8044
      8043      8041      8044      8041      8044      8045      8041      8044      8046
      8041      8044      8047      8045      8044      8046      8045      8044      8047
      8046      8044      8047      8044      8047      8048      8044      8047      8049
      8044      8047      8050      8048      8047      8049      8048      8047      8050
      8049      8047      8050      8047      8050      8051      8047      8050      8052
      8047      8050      8053      8051      8050      8052      8051      8050      8053
      8052      8050      8053      8050      8053      8054      8050      8053      8055
      8050      8053      8056      8054      8053      8055      8054      8053      8056
      8055      8053      8056      8053      8056      8057      8053      8056      8058
      8053      8056      8059      8057      8056      8058      8057      8056      8059
      8058      8056      8059      8056      8059      8060      8056      8059      8061
      8056      8059      8062      8060      8059      8061      8060      8059      8062
      8061      8059      8062      8059      8062      8063      8059      8062      8064
      8059      8062      8065      8063      8062      8064      8063      8062      8065
      8064      8062      8065      8062      8065      8066      8062      8065      8067
      8062      8065      8068      8066      8065      8067      8066      8065      8068
      8067      8065      8068      8065      8068      8069      8065      8068      8070
      8065      8068      8071      8069      8068      8070      8069      8068      8071
      8070      8068      8071      8068      8071      8072      8068      8071      8073
      8068      8071      8074      8072      8071      8073      8072      8071      8074
      8073      8071      8074      8071      8074      8075      8071      8074      8076
      8071      8074      8077      8075      8074      8076      8075      8074      8077
      8076      8074      8077      8074      8077      8078      8074      8077      8079
      8074      8077      8080      8078      8077      8079      8078      8077      8080
      8079      8077      8080      8077      8080      8081      8077      8080      8082
      8077      8080      8083      8081      8080      8082      8081      8080      8083
      8082      8080      8083      8085      8084      8088      8085      8084      8092
      8085      8084      8096      8088      8084      8092      8088      8084      8096
      8092      8084      8096      8084      8085      8086      8084      8085      8087
      8084      8085      8100      8086      8085      8087      8086      8085      8100
      8087      8085      8100      8084      8088      8089      8084      8088      8090
      8084      8088      8091      8089      8088      8090      8089      8088      8091
      8090      8088      8091      8084      8092      8093      8084      8092      8094
      8084      8092      8095      8093      8092      8094      8093      8092      8095
      8094      8092      8095      8084      8096      8097      8084      8096      8098
      8084      8096      8099      8097      8096      8098      8097      8096      8099
      8098      8096      8099      8085      8100      8101      8085      8100      8102
      8085      8100      8106      8101      8100      8102      8101      8100      8106
      8102      8100      8106      8104      8103      8105      8104      8103      8106
      8104      8103      8107      8105      8103      8106      8105      8103      8107
      8106      8103      8107      8100      8106      8103      8103      8107      8108
      8107      8108      8109      8107      8108      8110      8107      8108      8111
      8109      8108      8110      8109      8108      8111      8110      8108      8111
      8108      8111      8112      8108      8111      8113      8108      8111      8119
      8112      8111      8113      8112      8111      8119      8113      8111      8119
      8111      8113      8114      8113      8114      8115      8113      8114      8116
      8115      8114      8116      8114      8116      8117      8114      8116      8118
      8114      8116      8128      8117      8116      8118      8117      8116      8128
      8118      8116      8128      8111      8119      8120      8111      8119      8121
      8111      8119      8122      8120      8119      8121      8120      8119      8122
      8121      8119      8122      8119      8122      8123      8122      8123      8124
      8122      8123      8125      8124      8123      8125      8123      8125      8126
      8123      8125      8127      8123      8125      8175      8126      8125      8127
      8126      8125      8175      8127      8125      8175      8116      8128      8129
      8116      8128      8130      8116      8128      8131      8129      8128      8130
      8129      8128      8131      8130      8128      8131      8128      8131      8132
      8128      8131      8133      8128      8131      8134      8132      8131      8133
      8132      8131      8134      8133      8131      8134      8131      8134      8135
      8131      8134      8136      8131      8134      8137      8135      8134      8136
      8135      8134      8137      8136      8134      8137      8134      8137      8138
      8134      8137      8139      8134      8137      8140      8138      8137      8139
      8138      8137      8140      8139      8137      8140      8137      8140      8141
      8137      8140      8142      8137      8140      8143      8141      8140      8142
      8141      8140      8143      8142      8140      8143      8140      8143      8144
      8140      8143      8145      8140      8143      8146      8144      8143      8145
      8144      8143      8146      8145      8143      8146      8143      8146      8147
      8143      8146      8148      8147      8146      8148      8146      8148      8149
      8146      8148      8150      8149      8148      8150      8148      8150      8151
      8148      8150      8152      8148      8150      8153      8151      8150      8152
      8151      8150      8153      8152      8150      8153      8150      8153      8154
      8150      8153      8155      8150      8153      8156      8154      8153      8155
      8154      8153      8156      8155      8153      8156      8153      8156      8157
      8153      8156      8158      8153      8156      8159      8157      8156      8158
      8157      8156      8159      8158      8156      8159      8156      8159      8160
      8156      8159      8161      8156      8159      8162      8160      8159      8161
      8160      8159      8162      8161      8159      8162      8159      8162      8163
      8159      8162      8164      8159      8162      8165      8163      8162      8164
      8163      8162      8165      8164      8162      8165      8162      8165      8166
      8162      8165      8167      8162      8165      8168      8166      8165      8167
      8166      8165      8168      8167      8165      8168      8165      8168      8169
      8165      8168      8170      8165      8168      8171      8169      8168      8170
      8169      8168      8171      8170      8168      8171      8168      8171      8172
      8168      8171      8173      8168      8171      8174      8172      8171      8173
      8172      8171      8174      8173      8171      8174      8125      8175      8176
      8125      8175      8177      8125      8175      8178      8176      8175      8177
      8176      8175      8178      8177      8175      8178      8175      8178      8179
      8175      8178      8180      8175      8178      8181      8179      8178      8180
      8179      8178      8181      8180      8178      8181      8178      8181      8182
      8178      8181      8183      8178      8181      8184      8182      8181      8183
      8182      8181      8184      8183      8181      8184      8181      8184      8185
      8181      8184      8186      8181      8184      8187      8185      8184      8186
      8185      8184      8187      8186      8184      8187      8184      8187      8188
      8184      8187      8189      8184      8187      8190      8188      8187      8189
      8188      8187      8190      8189      8187      8190      8187      8190      8191
      8187      8190      8192      8187      8190      8193      8191      8190      8192
      8191      8190      8193      8192      8190      8193      8190      8193      8194
      8190      8193      8195      8190      8193      8196      8194      8193      8195
      8194      8193      8196      8195      8193      8196      8193      8196      8197
      8193      8196      8198      8193      8196      8199      8197      8196      8198
      8197      8196      8199      8198      8196      8199      8196      8199      8200
      8196      8199      8201      8196      8199      8202      8200      8199      8201
      8200      8199      8202      8201      8199      8202      8199      8202      8203
      8199      8202      8204      8199      8202      8205      8203      8202      8204
      8203      8202      8205      8204      8202      8205      8202      8205      8206
      8202      8205      8207      8202      8205      8208      8206      8205      8207
      8206      8205      8208      8207      8205      8208      8205      8208      8209
      8205      8208      8210      8205      8208      8211      8209      8208      8210
      8209      8208      8211      8210      8208      8211      8208      8211      8212
      8208      8211      8213      8208      8211      8214      8212      8211      8213
      8212      8211      8214      8213      8211      8214      8211      8214      8215
      8211      8214      8216      8211      8214      8217      8215      8214      8216
      8215      8214      8217      8216      8214      8217      8219      8218      8222
      8219      8218      8226      8219      8218      8230      8222      8218      8226
      8222      8218      8230      8226      8218      8230      8218      8219      8220
      8218      8219      8221      8218      8219      8234      8220      8219      8221
      8220      8219      8234      8221      8219      8234      8218      8222      8223
      8218      8222      8224      8218      8222      8225      8223      8222      8224
      8223      8222      8225      8224      8222      8225      8218      8226      8227
      8218      8226      8228      8218      8226      8229      8227      8226      8228
      8227      8226      8229      8228      8226      8229      8218      8230      8231
      8218      8230      8232      8218      8230      8233      8231      8230      8232
      8231      8230      8233      8232      8230      8233      8219      8234      8235
      8219      8234      8236      8219      8234      8240      8235      8234      8236
      8235      8234      8240      8236      8234      8240      8238      8237      8239
      8238      8237      8240      8238      8237      8241      8239      8237      8240
      8239      8237      8241      8240      8237      8241      8234      8240      8237
      8237      8241      8242      8241      8242      8243      8241      8242      8244
      8241      8242      8245      8243      8242      8244      8243      8242      8245
      8244      8242      8245      8242      8245      8246      8242      8245      8247
      8242      8245      8253      8246      8245      8247      8246      8245      8253
      8247      8245      8253      8245      8247      8248      8247      8248      8249
      8247      8248      8250      8249      8248      8250      8248      8250      8251
      8248      8250      8252      8248      8250      8262      8251      8250      8252
      8251      8250      8262      8252      8250      8262      8245      8253      8254
      8245      8253      8255      8245      8253      8256      8254      8253      8255
      8254      8253      8256      8255      8253      8256      8253      8256      8257
      8256      8257      8258      8256      8257      8259      8258      8257      8259
      8257      8259      8260      8257      8259      8261      8257      8259      8309
      8260      8259      8261      8260      8259      8309      8261      8259      8309
      8250      8262      8263      8250      8262      8264      8250      8262      8265
      8263      8262      8264      8263      8262      8265      8264      8262      8265
      8262      8265      8266      8262      8265      8267      8262      8265      8268
      8266      8265      8267      8266      8265      8268      8267      8265      8268
      8265      8268      8269      8265      8268      8270      8265      8268      8271
      8269      8268      8270      8269      8268      8271      8270      8268      8271
      8268      8271      8272      8268      8271      8273      8268      8271      8274
      8272      8271      8273      8272      8271      8274      8273      8271      8274
      8271      8274      8275      8271      8274      8276      8271      8274      8277
      8275      8274      8276      8275      8274      8277      8276      8274      8277
      8274      8277      8278      8274      8277      8279      8274      8277      8280
      8278      8277      8279      8278      8277      8280      8279      8277      8280
      8277      8280      8281      8277      8280      8282      8281      8280      8282
      8280      8282      8283      8280      8282      8284      8283      8282      8284
      8282      8284      8285      8282      8284      8286      8282      8284      8287
      8285      8284      8286      8285      8284      8287      8286      8284      8287
      8284      8287      8288      8284      8287      8289      8284      8287      8290
      8288      8287      8289      8288      8287      8290      8289      8287      8290
      8287      8290      8291      8287      8290      8292      8287      8290      8293
      8291      8290      8292      8291      8290      8293      8292      8290      8293
      8290      8293      8294      8290      8293      8295      8290      8293      8296
      8294      8293      8295      8294      8293      8296      8295      8293      8296
      8293      8296      8297      8293      8296      8298      8293      8296      8299
      8297      8296      8298      8297      8296      8299      8298      8296      8299
      8296      8299      8300      8296      8299      8301      8296      8299      8302
      8300      8299      8301      8300      8299      8302      8301      8299      8302
      8299      8302      8303      8299      8302      8304      8299      8302      8305
      8303      8302      8304      8303      8302      8305      8304      8302      8305
      8302      8305      8306      8302      8305      8307      8302      8305      8308
      8306      8305      8307      8306      8305      8308      8307      8305      8308
      8259      8309      8310      8259      8309      8311      8259      8309      8312
      8310      8309      8311      8310      8309      8312      8311      8309      8312
      8309      8312      8313      8309      8312      8314      8309      8312      8315
      8313      8312      8314      8313      8312      8315      8314      8312      8315
      8312      8315      8316      8312      8315      8317      8312      8315      8318
      8316      8315      8317      8316      8315      8318      8317      8315      8318
      8315      8318      8319      8315      8318      8320      8315      8318      8321
      8319      8318      8320      8319      8318      8321      8320      8318      8321
      8318      8321      8322      8318      8321      8323      8318      8321      8324
      8322      8321      8323      8322      8321      8324      8323      8321      8324
      8321      8324      8325      8321      8324      8326      8321      8324      8327
      8325      8324      8326      8325      8324      8327      8326      8324      8327
      8324      8327      8328      8324      8327      8329      8324      8327      8330
      8328      8327      8329      8328      8327      8330      8329      8327      8330
      8327      8330      8331      8327      8330      8332      8327      8330      8333
      8331      8330      8332      8331      8330      8333      8332      8330      8333
      8330      8333      8334      8330      8333      8335      8330      8333      8336
      8334      8333      8335      8334      8333      8336      8335      8333      8336
      8333      8336      8337      8333      8336      8338      8333      8336      8339
      8337      8336      8338      8337      8336      8339      8338      8336      8339
      8336      8339      8340      8336      8339      8341      8336      8339      8342
      8340      8339      8341      8340      8339      8342      8341      8339      8342
      8339      8342      8343      8339      8342      8344      8339      8342      8345
      8343      8342      8344      8343      8342      8345      8344      8342      8345
      8342      8345      8346      8342      8345      8347      8342      8345      8348
      8346      8345      8347      8346      8345      8348      8347      8345      8348
      8345      8348      8349      8345      8348      8350      8345      8348      8351
      8349      8348      8350      8349      8348      8351      8350      8348      8351
      8353      8352      8356      8353      8352      8360      8353      8352      8364
      8356      8352      8360      8356      8352      8364      8360      8352      8364
      8352      8353      8354      8352      8353      8355      8352      8353      8368
      8354      8353      8355      8354      8353      8368      8355      8353      8368
      8352      8356      8357      8352      8356      8358      8352      8356      8359
      8357      8356      8358      8357      8356      8359      8358      8356      8359
      8352      8360      8361      8352      8360      8362      8352      8360      8363
      8361      8360      8362      8361      8360      8363      8362      8360      8363
      8352      8364      8365      8352      8364      8366      8352      8364      8367
      8365      8364      8366      8365      8364      8367      8366      8364      8367
      8353      8368      8369      8353      8368      8370      8353      8368      8374
      8369      8368      8370      8369      8368      8374      8370      8368      8374
      8372      8371      8373      8372      8371      8374      8372      8371      8375
      8373      8371      8374      8373      8371      8375      8374      8371      8375
      8368      8374      8371      8371      8375      8376      8375      8376      8377
      8375      8376      8378      8375      8376      8379      8377      8376      8378
      8377      8376      8379      8378      8376      8379      8376      8379      8380
      8376      8379      8381      8376      8379      8387      8380      8379      8381
      8380      8379      8387      8381      8379      8387      8379      8381      8382
      8381      8382      8383      8381      8382      8384      8383      8382      8384
      8382      8384      8385      8382      8384      8386      8382      8384      8396
      8385      8384      8386      8385      8384      8396      8386      8384      8396
      8379      8387      8388      8379      8387      8389      8379      8387      8390
      8388      8387      8389      8388      8387      8390      8389      8387      8390
      8387      8390      8391      8390      8391      8392      8390      8391      8393
      8392      8391      8393      8391      8393      8394      8391      8393      8395
      8391      8393      8443      8394      8393      8395      8394      8393      8443
      8395      8393      8443      8384      8396      8397      8384      8396      8398
      8384      8396      8399      8397      8396      8398      8397      8396      8399
      8398      8396      8399      8396      8399      8400      8396      8399      8401
      8396      8399      8402      8400      8399      8401      8400      8399      8402
      8401      8399      8402      8399      8402      8403      8399      8402      8404
      8399      8402      8405      8403      8402      8404      8403      8402      8405
      8404      8402      8405      8402      8405      8406      8402      8405      8407
      8402      8405      8408      8406      8405      8407      8406      8405      8408
      8407      8405      8408      8405      8408      8409      8405      8408      8410
      8405      8408      8411      8409      8408      8410      8409      8408      8411
      8410      8408      8411      8408      8411      8412      8408      8411      8413
      8408      8411      8414      8412      8411      8413      8412      8411      8414
      8413      8411      8414      8411      8414      8415      8411      8414      8416
      8415      8414      8416      8414      8416      8417      8414      8416      8418
      8417      8416      8418      8416      8418      8419      8416      8418      8420
      8416      8418      8421      8419      8418      8420      8419      8418      8421
      8420      8418      8421      8418      8421      8422      8418      8421      8423
      8418      8421      8424      8422      8421      8423      8422      8421      8424
      8423      8421      8424      8421      8424      8425      8421      8424      8426
      8421      8424      8427      8425      8424      8426      8425      8424      8427
      8426      8424      8427      8424      8427      8428      8424      8427      8429
      8424      8427      8430      8428      8427      8429      8428      8427      8430
      8429      8427      8430      8427      8430      8431      8427      8430      8432
      8427      8430      8433      8431      8430      8432      8431      8430      8433
      8432      8430      8433      8430      8433      8434      8430      8433      8435
      8430      8433      8436      8434      8433      8435      8434      8433      8436
      8435      8433      8436      8433      8436      8437      8433      8436      8438
      8433      8436      8439      8437      8436      8438      8437      8436      8439
      8438      8436      8439      8436      8439      8440      8436      8439      8441
      8436      8439      8442      8440      8439      8441      8440      8439      8442
      8441      8439      8442      8393      8443      8444      8393      8443      8445
      8393      8443      8446      8444      8443      8445      8444      8443      8446
      8445      8443      8446      8443      8446      8447      8443      8446      8448
      8443      8446      8449      8447      8446      8448      8447      8446      8449
      8448      8446      8449      8446      8449      8450      8446      8449      8451
      8446      8449      8452      8450      8449      8451      8450      8449      8452
      8451      8449      8452      8449      8452      8453      8449      8452      8454
      8449      8452      8455      8453      8452      8454      8453      8452      8455
      8454      8452      8455      8452      8455      8456      8452      8455      8457
      8452      8455      8458      8456      8455      8457      8456      8455      8458
      8457      8455      8458      8455      8458      8459      8455      8458      8460
      8455      8458      8461      8459      8458      8460      8459      8458      8461
      8460      8458      8461      8458      8461      8462      8458      8461      8463
      8458      8461      8464      8462      8461      8463      8462      8461      8464
      8463      8461      8464      8461      8464      8465      8461      8464      8466
      8461      8464      8467      8465      8464      8466      8465      8464      8467
      8466      8464      8467      8464      8467      8468      8464      8467      8469
      8464      8467      8470      8468      8467      8469      8468      8467      8470
      8469      8467      8470      8467      8470      8471      8467      8470      8472
      8467      8470      8473      8471      8470      8472      8471      8470      8473
      8472      8470      8473      8470      8473      8474      8470      8473      8475
      8470      8473      8476      8474      8473      8475      8474      8473      8476
      8475      8473      8476      8473      8476      8477      8473      8476      8478
      8473      8476      8479      8477      8476      8478      8477      8476      8479
      8478      8476      8479      8476      8479      8480      8476      8479      8481
      8476      8479      8482      8480      8479      8481      8480      8479      8482
      8481      8479      8482      8479      8482      8483      8479      8482      8484
      8479      8482      8485      8483      8482      8484      8483      8482      8485
      8484      8482      8485      8487      8486      8490      8487      8486      8494
      8487      8486      8498      8490      8486      8494      8490      8486      8498
      8494      8486      8498      8486      8487      8488      8486      8487      8489
      8486      8487      8502      8488      8487      8489      8488      8487      8502
      8489      8487      8502      8486      8490      8491      8486      8490      8492
      8486      8490      8493      8491      8490      8492      8491      8490      8493
      8492      8490      8493      8486      8494      8495      8486      8494      8496
      8486      8494      8497      8495      8494      8496      8495      8494      8497
      8496      8494      8497      8486      8498      8499      8486      8498      8500
      8486      8498      8501      8499      8498      8500      8499      8498      8501
      8500      8498      8501      8487      8502      8503      8487      8502      8504
      8487      8502      8508      8503      8502      8504      8503      8502      8508
      8504      8502      8508      8506      8505      8507      8506      8505      8508
      8506      8505      8509      8507      8505      8508      8507      8505      8509
      8508      8505      8509      8502      8508      8505      8505      8509      8510
      8509      8510      8511      8509      8510      8512      8509      8510      8513
      8511      8510      8512      8511      8510      8513      8512      8510      8513
      8510      8513      8514      8510      8513      8515      8510      8513      8521
      8514      8513      8515      8514      8513      8521      8515      8513      8521
      8513      8515      8516      8515      8516      8517      8515      8516      8518
      8517      8516      8518      8516      8518      8519      8516      8518      8520
      8516      8518      8530      8519      8518      8520      8519      8518      8530
      8520      8518      8530      8513      8521      8522      8513      8521      8523
      8513      8521      8524      8522      8521      8523      8522      8521      8524
      8523      8521      8524      8521      8524      8525      8524      8525      8526
      8524      8525      8527      8526      8525      8527      8525      8527      8528
      8525      8527      8529      8525      8527      8577      8528      8527      8529
      8528      8527      8577      8529      8527      8577      8518      8530      8531
      8518      8530      8532      8518      8530      8533      8531      8530      8532
      8531      8530      8533      8532      8530      8533      8530      8533      8534
      8530      8533      8535      8530      8533      8536      8534      8533      8535
      8534      8533      8536      8535      8533      8536      8533      8536      8537
      8533      8536      8538      8533      8536      8539      8537      8536      8538
      8537      8536      8539      8538      8536      8539      8536      8539      8540
      8536      8539      8541      8536      8539      8542      8540      8539      8541
      8540      8539      8542      8541      8539      8542      8539      8542      8543
      8539      8542      8544      8539      8542      8545      8543      8542      8544
      8543      8542      8545      8544      8542      8545      8542      8545      8546
      8542      8545      8547      8542      8545      8548      8546      8545      8547
      8546      8545      8548      8547      8545      8548      8545      8548      8549
      8545      8548      8550      8549      8548      8550      8548      8550      8551
      8548      8550      8552      8551      8550      8552      8550      8552      8553
      8550      8552      8554      8550      8552      8555      8553      8552      8554
      8553      8552      8555      8554      8552      8555      8552      8555      8556
      8552      8555      8557      8552      8555      8558      8556      8555      8557
      8556      8555      8558      8557      8555      8558      8555      8558      8559
      8555      8558      8560      8555      8558      8561      8559      8558      8560
      8559      8558      8561      8560      8558      8561      8558      8561      8562
      8558      8561      8563      8558      8561      8564      8562      8561      8563
      8562      8561      8564      8563      8561      8564      8561      8564      8565
      8561      8564      8566      8561      8564      8567      8565      8564      8566
      8565      8564      8567      8566      8564      8567      8564      8567      8568
      8564      8567      8569      8564      8567      8570      8568      8567      8569
      8568      8567      8570      8569      8567      8570      8567      8570      8571
      8567      8570      8572      8567      8570      8573      8571      8570      8572
      8571      8570      8573      8572      8570      8573      8570      8573      8574
      8570      8573      8575      8570      8573      8576      8574      8573      8575
      8574      8573      8576      8575      8573      8576      8527      8577      8578
      8527      8577      8579      8527      8577      8580      8578      8577      8579
      8578      8577      8580      8579      8577      8580      8577      8580      8581
      8577      8580      8582      8577      8580      8583      8581      8580      8582
      8581      8580      8583      8582      8580      8583      8580      8583      8584
      8580      8583      8585      8580      8583      8586      8584      8583      8585
      8584      8583      8586      8585      8583      8586      8583      8586      8587
      8583      8586      8588      8583      8586      8589      8587      8586      8588
      8587      8586      8589      8588      8586      8589      8586      8589      8590
      8586      8589      8591      8586      8589      8592      8590      8589      8591
      8590      8589      8592      8591      8589      8592      8589      8592      8593
      8589      8592      8594      8589      8592      8595      8593      8592      8594
      8593      8592      8595      8594      8592      8595      8592      8595      8596
      8592      8595      8597      8592      8595      8598      8596      8595      8597
      8596      8595      8598      8597      8595      8598      8595      8598      8599
      8595      8598      8600      8595      8598      8601      8599      8598      8600
      8599      8598      8601      8600      8598      8601      8598      8601      8602
      8598      8601      8603      8598      8601      8604      8602      8601      8603
      8602      8601      8604      8603      8601      8604      8601      8604      8605
      8601      8604      8606      8601      8604      8607      8605      8604      8606
      8605      8604      8607      8606      8604      8607      8604      8607      8608
      8604      8607      8609      8604      8607      8610      8608      8607      8609
      8608      8607      8610      8609      8607      8610      8607      8610      8611
      8607      8610      8612      8607      8610      8613      8611      8610      8612
      8611      8610      8613      8612      8610      8613      8610      8613      8614
      8610      8613      8615      8610      8613      8616      8614      8613      8615
      8614      8613      8616      8615      8613      8616      8613      8616      8617
      8613      8616      8618      8613      8616      8619      8617      8616      8618
      8617      8616      8619      8618      8616      8619      8621      8620      8622
      8621      8620      8623      8621      8620      8624      8622      8620      8623
      8622      8620      8624      8623      8620      8624      8620      8624      8625
      8620      8624      8626      8620      8624      8629      8625      8624      8626
      8625      8624      8629      8626      8624      8629      8624      8626      8627
      8624      8626      8628      8627      8626      8628      8624      8629      8630
      8624      8629      8631      8624      8629      8635      8630      8629      8631
      8630      8629      8635      8631      8629      8635      8633      8632      8634
      8633      8632      8635      8633      8632      8636      8634      8632      8635
      8634      8632      8636      8635      8632      8636      8629      8635      8632
      8632      8636      8637      8636      8637      8638      8636      8637      8639
      8636      8637      8640      8638      8637      8639      8638      8637      8640
      8639      8637      8640      8637      8640      8641      8637      8640      8642
      8637      8640      8648      8641      8640      8642      8641      8640      8648
      8642      8640      8648      8640      8642      8643      8642      8643      8644
      8642      8643      8645      8644      8643      8645      8643      8645      8646
      8643      8645      8647      8643      8645      8657      8646      8645      8647
      8646      8645      8657      8647      8645      8657      8640      8648      8649
      8640      8648      8650      8640      8648      8651      8649      8648      8650
      8649      8648      8651      8650      8648      8651      8648      8651      8652
      8651      8652      8653      8651      8652      8654      8653      8652      8654
      8652      8654      8655      8652      8654      8656      8652      8654      8704
      8655      8654      8656      8655      8654      8704      8656      8654      8704
      8645      8657      8658      8645      8657      8659      8645      8657      8660
      8658      8657      8659      8658      8657      8660      8659      8657      8660
      8657      8660      8661      8657      8660      8662      8657      8660      8663
      8661      8660      8662      8661      8660      8663      8662      8660      8663
      8660      8663      8664      8660      8663      8665      8660      8663      8666
      8664      8663      8665      8664      8663      8666      8665      8663      8666
      8663      8666      8667      8663      8666      8668      8663      8666      8669
      8667      8666      8668      8667      8666      8669      8668      8666      8669
      8666      8669      8670      8666      8669      8671      8666      8669      8672
      8670      8669      8671      8670      8669      8672      8671      8669      8672
      8669      8672      8673      8669      8672      8674      8669      8672      8675
      8673      8672      8674      8673      8672      8675      8674      8672      8675
      8672      8675      8676      8672      8675      8677      8676      8675      8677
      8675      8677      8678      8675      8677      8679      8678      8677      8679
      8677      8679      8680      8677      8679      8681      8677      8679      8682
      8680      8679      8681      8680      8679      8682      8681      8679      8682
      8679      8682      8683      8679      8682      8684      8679      8682      8685
      8683      8682      8684      8683      8682      8685      8684      8682      8685
      8682      8685      8686      8682      8685      8687      8682      8685      8688
      8686      8685      8687      8686      8685      8688      8687      8685      8688
      8685      8688      8689      8685      8688      8690      8685      8688      8691
      8689      8688      8690      8689      8688      8691      8690      8688      8691
      8688      8691      8692      8688      8691      8693      8688      8691      8694
      8692      8691      8693      8692      8691      8694      8693      8691      8694
      8691      8694      8695      8691      8694      8696      8691      8694      8697
      8695      8694      8696      8695      8694      8697      8696      8694      8697
      8694      8697      8698      8694      8697      8699      8694      8697      8700
      8698      8697      8699      8698      8697      8700      8699      8697      8700
      8697      8700      8701      8697      8700      8702      8697      8700      8703
      8701      8700      8702      8701      8700      8703      8702      8700      8703
      8654      8704      8705      8654      8704      8706      8654      8704      8707
      8705      8704      8706      8705      8704      8707      8706      8704      8707
      8704      8707      8708      8704      8707      8709      8704      8707      8710
      8708      8707      8709      8708      8707      8710      8709      8707      8710
      8707      8710      8711      8707      8710      8712      8707      8710      8713
      8711      8710      8712      8711      8710      8713      8712      8710      8713
      8710      8713      8714      8710      8713      8715      8710      8713      8716
      8714      8713      8715      8714      8713      8716      8715      8713      8716
      8713      8716      8717      8713      8716      8718      8713      8716      8719
      8717      8716      8718      8717      8716      8719      8718      8716      8719
      8716      8719      8720      8716      8719      8721      8716      8719      8722
      8720      8719      8721      8720      8719      8722      8721      8719      8722
      8719      8722      8723      8719      8722      8724      8719      8722      8725
      8723      8722      8724      8723      8722      8725      8724      8722      8725
      8722      8725      8726      8722      8725      8727      8722      8725      8728
      8726      8725      8727      8726      8725      8728      8727      8725      8728
      8725      8728      8729      8725      8728      8730      8725      8728      8731
      8729      8728      8730      8729      8728      8731      8730      8728      8731
      8728      8731      8732      8728      8731      8733      8728      8731      8734
      8732      8731      8733      8732      8731      8734      8733      8731      8734
      8731      8734      8735      8731      8734      8736      8731      8734      8737
      8735      8734      8736      8735      8734      8737      8736      8734      8737
      8734      8737      8738      8734      8737      8739      8734      8737      8740
      8738      8737      8739      8738      8737      8740      8739      8737      8740
      8737      8740      8741      8737      8740      8742      8737      8740      8743
      8741      8740      8742      8741      8740      8743      8742      8740      8743
      8740      8743      8744      8740      8743      8745      8740      8743      8746
      8744      8743      8745      8744      8743      8746      8745      8743      8746
      8748      8747      8751      8748      8747      8755      8748      8747      8759
      8751      8747      8755      8751      8747      8759      8755      8747      8759
      8747      8748      8749      8747      8748      8750      8747      8748      8763
      8749      8748      8750      8749      8748      8763      8750      8748      8763
      8747      8751      8752      8747      8751      8753      8747      8751      8754
      8752      8751      8753      8752      8751      8754      8753      8751      8754
      8747      8755      8756      8747      8755      8757      8747      8755      8758
      8756      8755      8757      8756      8755      8758      8757      8755      8758
      8747      8759      8760      8747      8759      8761      8747      8759      8762
      8760      8759      8761      8760      8759      8762      8761      8759      8762
      8748      8763      8764      8748      8763      8765      8748      8763      8769
      8764      8763      8765      8764      8763      8769      8765      8763      8769
      8767      8766      8768      8767      8766      8769      8767      8766      8770
      8768      8766      8769      8768      8766      8770      8769      8766      8770
      8763      8769      8766      8766      8770      8771      8770      8771      8772
      8770      8771      8773      8770      8771      8774      8772      8771      8773
      8772      8771      8774      8773      8771      8774      8771      8774      8775
      8771      8774      8776      8771      8774      8782      8775      8774      8776
      8775      8774      8782      8776      8774      8782      8774      8776      8777
      8776      8777      8778      8776      8777      8779      8778      8777      8779
      8777      8779      8780      8777      8779      8781      8777      8779      8791
      8780      8779      8781      8780      8779      8791      8781      8779      8791
      8774      8782      8783      8774      8782      8784      8774      8782      8785
      8783      8782      8784      8783      8782      8785      8784      8782      8785
      8782      8785      8786      8785      8786      8787      8785      8786      8788
      8787      8786      8788      8786      8788      8789      8786      8788      8790
      8786      8788      8838      8789      8788      8790      8789      8788      8838
      8790      8788      8838      8779      8791      8792      8779      8791      8793
      8779      8791      8794      8792      8791      8793      8792      8791      8794
      8793      8791      8794      8791      8794      8795      8791      8794      8796
      8791      8794      8797      8795      8794      8796      8795      8794      8797
      8796      8794      8797      8794      8797      8798      8794      8797      8799
      8794      8797      8800      8798      8797      8799      8798      8797      8800
      8799      8797      8800      8797      8800      8801      8797      8800      8802
      8797      8800      8803      8801      8800      8802      8801      8800      8803
      8802      8800      8803      8800      8803      8804      8800      8803      8805
      8800      8803      8806      8804      8803      8805      8804      8803      8806
      8805      8803      8806      8803      8806      8807      8803      8806      8808
      8803      8806      8809      8807      8806      8808      8807      8806      8809
      8808      8806      8809      8806      8809      8810      8806      8809      8811
      8810      8809      8811      8809      8811      8812      8809      8811      8813
      8812      8811      8813      8811      8813      8814      8811      8813      8815
      8811      8813      8816      8814      8813      8815      8814      8813      8816
      8815      8813      8816      8813      8816      8817      8813      8816      8818
      8813      8816      8819      8817      8816      8818      8817      8816      8819
      8818      8816      8819      8816      8819      8820      8816      8819      8821
      8816      8819      8822      8820      8819      8821      8820      8819      8822
      8821      8819      8822      8819      8822      8823      8819      8822      8824
      8819      8822      8825      8823      8822      8824      8823      8822      8825
      8824      8822      8825      8822      8825      8826      8822      8825      8827
      8822      8825      8828      8826      8825      8827      8826      8825      8828
      8827      8825      8828      8825      8828      8829      8825      8828      8830
      8825      8828      8831      8829      8828      8830      8829      8828      8831
      8830      8828      8831      8828      8831      8832      8828      8831      8833
      8828      8831      8834      8832      8831      8833      8832      8831      8834
      8833      8831      8834      8831      8834      8835      8831      8834      8836
      8831      8834      8837      8835      8834      8836      8835      8834      8837
      8836      8834      8837      8788      8838      8839      8788      8838      8840
      8788      8838      8841      8839      8838      8840      8839      8838      8841
      8840      8838      8841      8838      8841      8842      8838      8841      8843
      8838      8841      8844      8842      8841      8843      8842      8841      8844
      8843      8841      8844      8841      8844      8845      8841      8844      8846
      8841      8844      8847      8845      8844      8846      8845      8844      8847
      8846      8844      8847      8844      8847      8848      8844      8847      8849
      8844      8847      8850      8848      8847      8849      8848      8847      8850
      8849      8847      8850      8847      8850      8851      8847      8850      8852
      8847      8850      8853      8851      8850      8852      8851      8850      8853
      8852      8850      8853      8850      8853      8854      8850      8853      8855
      8850      8853      8856      8854      8853      8855      8854      8853      8856
      8855      8853      8856      8853      8856      8857      8853      8856      8858
      8853      8856      8859      8857      8856      8858      8857      8856      8859
      8858      8856      8859      8856      8859      8860      8856      8859      8861
      8856      8859      8862      8860      8859      8861      8860      8859      8862
      8861      8859      8862      8859      8862      8863      8859      8862      8864
      8859      8862      8865      8863      8862      8864      8863      8862      8865
      8864      8862      8865      8862      8865      8866      8862      8865      8867
      8862      8865      8868      8866      8865      8867      8866      8865      8868
      8867      8865      8868      8865      8868      8869      8865      8868      8870
      8865      8868      8871      8869      8868      8870      8869      8868      8871
      8870      8868      8871      8868      8871      8872      8868      8871      8873
      8868      8871      8874      8872      8871      8873      8872      8871      8874
      8873      8871      8874      8871      8874      8875      8871      8874      8876
      8871      8874      8877      8875      8874      8876      8875      8874      8877
      8876      8874      8877      8874      8877      8878      8874      8877      8879
      8874      8877      8880      8878      8877      8879      8878      8877      8880
      8879      8877      8880      8882      8881      8885      8882      8881      8889
      8882      8881      8893      8885      8881      8889      8885      8881      8893
      8889      8881      8893      8881      8882      8883      8881      8882      8884
      8881      8882      8897      8883      8882      8884      8883      8882      8897
      8884      8882      8897      8881      8885      8886      8881      8885      8887
      8881      8885      8888      8886      8885      8887      8886      8885      8888
      8887      8885      8888      8881      8889      8890      8881      8889      8891
      8881      8889      8892      8890      8889      8891      8890      8889      8892
      8891      8889      8892      8881      8893      8894      8881      8893      8895
      8881      8893      8896      8894      8893      8895      8894      8893      8896
      8895      8893      8896      8882      8897      8898      8882      8897      8899
      8882      8897      8903      8898      8897      8899      8898      8897      8903
      8899      8897      8903      8901      8900      8902      8901      8900      8903
      8901      8900      8904      8902      8900      8903      8902      8900      8904
      8903      8900      8904      8897      8903      8900      8900      8904      8905
      8904      8905      8906      8904      8905      8907      8904      8905      8908
      8906      8905      8907      8906      8905      8908      8907      8905      8908
      8905      8908      8909      8905      8908      8910      8905      8908      8916
      8909      8908      8910      8909      8908      8916      8910      8908      8916
      8908      8910      8911      8910      8911      8912      8910      8911      8913
      8912      8911      8913      8911      8913      8914      8911      8913      8915
      8911      8913      8925      8914      8913      8915      8914      8913      8925
      8915      8913      8925      8908      8916      8917      8908      8916      8918
      8908      8916      8919      8917      8916      8918      8917      8916      8919
      8918      8916      8919      8916      8919      8920      8919      8920      8921
      8919      8920      8922      8921      8920      8922      8920      8922      8923
      8920      8922      8924      8920      8922      8972      8923      8922      8924
      8923      8922      8972      8924      8922      8972      8913      8925      8926
      8913      8925      8927      8913      8925      8928      8926      8925      8927
      8926      8925      8928      8927      8925      8928      8925      8928      8929
      8925      8928      8930      8925      8928      8931      8929      8928      8930
      8929      8928      8931      8930      8928      8931      8928      8931      8932
      8928      8931      8933      8928      8931      8934      8932      8931      8933
      8932      8931      8934      8933      8931      8934      8931      8934      8935
      8931      8934      8936      8931      8934      8937      8935      8934      8936
      8935      8934      8937      8936      8934      8937      8934      8937      8938
      8934      8937      8939      8934      8937      8940      8938      8937      8939
      8938      8937      8940      8939      8937      8940      8937      8940      8941
      8937      8940      8942      8937      8940      8943      8941      8940      8942
      8941      8940      8943      8942      8940      8943      8940      8943      8944
      8940      8943      8945      8944      8943      8945      8943      8945      8946
      8943      8945      8947      8946      8945      8947      8945      8947      8948
      8945      8947      8949      8945      8947      8950      8948      8947      8949
      8948      8947      8950      8949      8947      8950      8947      8950      8951
      8947      8950      8952      8947      8950      8953      8951      8950      8952
      8951      8950      8953      8952      8950      8953      8950      8953      8954
      8950      8953      8955      8950      8953      8956      8954      8953      8955
      8954      8953      8956      8955      8953      8956      8953      8956      8957
      8953      8956      8958      8953      8956      8959      8957      8956      8958
      8957      8956      8959      8958      8956      8959      8956      8959      8960
      8956      8959      8961      8956      8959      8962      8960      8959      8961
      8960      8959      8962      8961      8959      8962      8959      8962      8963
      8959      8962      8964      8959      8962      8965      8963      8962      8964
      8963      8962      8965      8964      8962      8965      8962      8965      8966
      8962      8965      8967      8962      8965      8968      8966      8965      8967
      8966      8965      8968      8967      8965      8968      8965      8968      8969
      8965      8968      8970      8965      8968      8971      8969      8968      8970
      8969      8968      8971      8970      8968      8971      8922      8972      8973
      8922      8972      8974      8922      8972      8975      8973      8972      8974
      8973      8972      8975      8974      8972      8975      8972      8975      8976
      8972      8975      8977      8972      8975      8978      8976      8975      8977
      8976      8975      8978      8977      8975      8978      8975      8978      8979
      8975      8978      8980      8975      8978      8981      8979      8978      8980
      8979      8978      8981      8980      8978      8981      8978      8981      8982
      8978      8981      8983      8978      8981      8984      8982      8981      8983
      8982      8981      8984      8983      8981      8984      8981      8984      8985
      8981      8984      8986      8981      8984      8987      8985      8984      8986
      8985      8984      8987      8986      8984      8987      8984      8987      8988
      8984      8987      8989      8984      8987      8990      8988      8987      8989
      8988      8987      8990      8989      8987      8990      8987      8990      8991
      8987      8990      8992      8987      8990      8993      8991      8990      8992
      8991      8990      8993      8992      8990      8993      8990      8993      8994
      8990      8993      8995      8990      8993      8996      8994      8993      8995
      8994      8993      8996      8995      8993      8996      8993      8996      8997
      8993      8996      8998      8993      8996      8999      8997      8996      8998
      8997      8996      8999      8998      8996      8999      8996      8999      9000
      8996      8999      9001      8996      8999      9002      9000      8999      9001
      9000      8999      9002      9001      8999      9002      8999      9002      9003
      8999      9002      9004      8999      9002      9005      9003      9002      9004
      9003      9002      9005      9004      9002      9005      9002      9005      9006
      9002      9005      9007      9002      9005      9008      9006      9005      9007
      9006      9005      9008      9007      9005      9008      9005      9008      9009
      9005      9008      9010      9005      9008      9011      9009      9008      9010
      9009      9008      9011      9010      9008      9011      9008      9011      9012
      9008      9011      9013      9008      9011      9014      9012      9011      9013
      9012      9011      9014      9013      9011      9014      9016      9015      9019
      9016      9015      9023      9016      9015      9027      9019      9015      9023
      9019      9015      9027      9023      9015      9027      9015      9016      9017
      9015      9016      9018      9015      9016      9031      9017      9016      9018
      9017      9016      9031      9018      9016      9031      9015      9019      9020
      9015      9019      9021      9015      9019      9022      9020      9019      9021
      9020      9019      9022      9021      9019      9022      9015      9023      9024
      9015      9023      9025      9015      9023      9026      9024      9023      9025
      9024      9023      9026      9025      9023      9026      9015      9027      9028
      9015      9027      9029      9015      9027      9030      9028      9027      9029
      9028      9027      9030      9029      9027      9030      9016      9031      9032
      9016      9031      9033      9016      9031      9037      9032      9031      9033
      9032      9031      9037      9033      9031      9037      9035      9034      9036
      9035      9034      9037      9035      9034      9038      9036      9034      9037
      9036      9034      9038      9037      9034      9038      9031      9037      9034
      9034      9038      9039      9038      9039      9040      9038      9039      9041
      9038      9039      9042      9040      9039      9041      9040      9039      9042
      9041      9039      9042      9039      9042      9043      9039      9042      9044
      9039      9042      9050      9043      9042      9044      9043      9042      9050
      9044      9042      9050      9042      9044      9045      9044      9045      9046
      9044      9045      9047      9046      9045      9047      9045      9047      9048
      9045      9047      9049      9045      9047      9059      9048      9047      9049
      9048      9047      9059      9049      9047      9059      9042      9050      9051
      9042      9050      9052      9042      9050      9053      9051      9050      9052
      9051      9050      9053      9052      9050      9053      9050      9053      9054
      9053      9054      9055      9053      9054      9056      9055      9054      9056
      9054      9056      9057      9054      9056      9058      9054      9056      9106
      9057      9056      9058      9057      9056      9106      9058      9056      9106
      9047      9059      9060      9047      9059      9061      9047      9059      9062
      9060      9059      9061      9060      9059      9062      9061      9059      9062
      9059      9062      9063      9059      9062      9064      9059      9062      9065
      9063      9062      9064      9063      9062      9065      9064      9062      9065
      9062      9065      9066      9062      9065      9067      9062      9065      9068
      9066      9065      9067      9066      9065      9068      9067      9065      9068
      9065      9068      9069      9065      9068      9070      9065      9068      9071
      9069      9068      9070      9069      9068      9071      9070      9068      9071
      9068      9071      9072      9068      9071      9073      9068      9071      9074
      9072      9071      9073      9072      9071      9074      9073      9071      9074
      9071      9074      9075      9071      9074      9076      9071      9074      9077
      9075      9074      9076      9075      9074      9077      9076      9074      9077
      9074      9077      9078      9074      9077      9079      9078      9077      9079
      9077      9079      9080      9077      9079      9081      9080      9079      9081
      9079      9081      9082      9079      9081      9083      9079      9081      9084
      9082      9081      9083      9082      9081      9084      9083      9081      9084
      9081      9084      9085      9081      9084      9086      9081      9084      9087
      9085      9084      9086      9085      9084      9087      9086      9084      9087
      9084      9087      9088      9084      9087      9089      9084      9087      9090
      9088      9087      9089      9088      9087      9090      9089      9087      9090
      9087      9090      9091      9087      9090      9092      9087      9090      9093
      9091      9090      9092      9091      9090      9093      9092      9090      9093
      9090      9093      9094      9090      9093      9095      9090      9093      9096
      9094      9093      9095      9094      9093      9096      9095      9093      9096
      9093      9096      9097      9093      9096      9098      9093      9096      9099
      9097      9096      9098      9097      9096      9099      9098      9096      9099
      9096      9099      9100      9096      9099      9101      9096      9099      9102
      9100      9099      9101      9100      9099      9102      9101      9099      9102
      9099      9102      9103      9099      9102      9104      9099      9102      9105
      9103      9102      9104      9103      9102      9105      9104      9102      9105
      9056      9106      9107      9056      9106      9108      9056      9106      9109
      9107      9106      9108      9107      9106      9109      9108      9106      9109
      9106      9109      9110      9106      9109      9111      9106      9109      9112
      9110      9109      9111      9110      9109      9112      9111      9109      9112
      9109      9112      9113      9109      9112      9114      9109      9112      9115
      9113      9112      9114      9113      9112      9115      9114      9112      9115
      9112      9115      9116      9112      9115      9117      9112      9115      9118
      9116      9115      9117      9116      9115      9118      9117      9115      9118
      9115      9118      9119      9115      9118      9120      9115      9118      9121
      9119      9118      9120      9119      9118      9121      9120      9118      9121
      9118      9121      9122      9118      9121      9123      9118      9121      9124
      9122      9121      9123      9122      9121      9124      9123      9121      9124
      9121      9124      9125      9121      9124      9126      9121      9124      9127
      9125      9124      9126      9125      9124      9127      9126      9124      9127
      9124      9127      9128      9124      9127      9129      9124      9127      9130
      9128      9127      9129      9128      9127      9130      9129      9127      9130
      9127      9130      9131      9127      9130      9132      9127      9130      9133
      9131      9130      9132      9131      9130      9133      9132      9130      9133
      9130      9133      9134      9130      9133      9135      9130      9133      9136
      9134      9133      9135      9134      9133      9136      9135      9133      9136
      9133      9136      9137      9133      9136      9138      9133      9136      9139
      9137      9136      9138      9137      9136      9139      9138      9136      9139
      9136      9139      9140      9136      9139      9141      9136      9139      9142
      9140      9139      9141      9140      9139      9142      9141      9139      9142
      9139      9142      9143      9139      9142      9144      9139      9142      9145
      9143      9142      9144      9143      9142      9145      9144      9142      9145
      9142      9145      9146      9142      9145      9147      9142      9145      9148
      9146      9145      9147      9146      9145      9148      9147      9145      9148
      9150      9149      9153      9150      9149      9157      9150      9149      9161
      9153      9149      9157      9153      9149      9161      9157      9149      9161
      9149      9150      9151      9149      9150      9152      9149      9150      9165
      9151      9150      9152      9151      9150      9165      9152      9150      9165
      9149      9153      9154      9149      9153      9155      9149      9153      9156
      9154      9153      9155      9154      9153      9156      9155      9153      9156
      9149      9157      9158      9149      9157      9159      9149      9157      9160
      9158      9157      9159      9158      9157      9160      9159      9157      9160
      9149      9161      9162      9149      9161      9163      9149      9161      9164
      9162      9161      9163      9162      9161      9164      9163      9161      9164
      9150      9165      9166      9150      9165      9167      9150      9165      9171
      9166      9165      9167      9166      9165      9171      9167      9165      9171
      9169      9168      9170      9169      9168      9171      9169      9168      9172
      9170      9168      9171      9170      9168      9172      9171      9168      9172
      9165      9171      9168      9168      9172      9173      9172      9173      9174
      9172      9173      9175      9172      9173      9176      9174      9173      9175
      9174      9173      9176      9175      9173      9176      9173      9176      9177
      9173      9176      9178      9173      9176      9184      9177      9176      9178
      9177      9176      9184      9178      9176      9184      9176      9178      9179
      9178      9179      9180      9178      9179      9181      9180      9179      9181
      9179      9181      9182      9179      9181      9183      9179      9181      9193
      9182      9181      9183      9182      9181      9193      9183      9181      9193
      9176      9184      9185      9176      9184      9186      9176      9184      9187
      9185      9184      9186      9185      9184      9187      9186      9184      9187
      9184      9187      9188      9187      9188      9189      9187      9188      9190
      9189      9188      9190      9188      9190      9191      9188      9190      9192
      9188      9190      9240      9191      9190      9192      9191      9190      9240
      9192      9190      9240      9181      9193      9194      9181      9193      9195
      9181      9193      9196      9194      9193      9195      9194      9193      9196
      9195      9193      9196      9193      9196      9197      9193      9196      9198
      9193      9196      9199      9197      9196      9198      9197      9196      9199
      9198      9196      9199      9196      9199      9200      9196      9199      9201
      9196      9199      9202      9200      9199      9201      9200      9199      9202
      9201      9199      9202      9199      9202      9203      9199      9202      9204
      9199      9202      9205      9203      9202      9204      9203      9202      9205
      9204      9202      9205      9202      9205      9206      9202      9205      9207
      9202      9205      9208      9206      9205      9207      9206      9205      9208
      9207      9205      9208      9205      9208      9209      9205      9208      9210
      9205      9208      9211      9209      9208      9210      9209      9208      9211
      9210      9208      9211      9208      9211      9212      9208      9211      9213
      9212      9211      9213      9211      9213      9214      9211      9213      9215
      9214      9213      9215      9213      9215      9216      9213      9215      9217
      9213      9215      9218      9216      9215      9217      9216      9215      9218
      9217      9215      9218      9215      9218      9219      9215      9218      9220
      9215      9218      9221      9219      9218      9220      9219      9218      9221
      9220      9218      9221      9218      9221      9222      9218      9221      9223
      9218      9221      9224      9222      9221      9223      9222      9221      9224
      9223      9221      9224      9221      9224      9225      9221      9224      9226
      9221      9224      9227      9225      9224      9226      9225      9224      9227
      9226      9224      9227      9224      9227      9228      9224      9227      9229
      9224      9227      9230      9228      9227      9229      9228      9227      9230
      9229      9227      9230      9227      9230      9231      9227      9230      9232
      9227      9230      9233      9231      9230      9232      9231      9230      9233
      9232      9230      9233      9230      9233      9234      9230      9233      9235
      9230      9233      9236      9234      9233      9235      9234      9233      9236
      9235      9233      9236      9233      9236      9237      9233      9236      9238
      9233      9236      9239      9237      9236      9238      9237      9236      9239
      9238      9236      9239      9190      9240      9241      9190      9240      9242
      9190      9240      9243      9241      9240      9242      9241      9240      9243
      9242      9240      9243      9240      9243      9244      9240      9243      9245
      9240      9243      9246      9244      9243      9245      9244      9243      9246
      9245      9243      9246      9243      9246      9247      9243      9246      9248
      9243      9246      9249      9247      9246      9248      9247      9246      9249
      9248      9246      9249      9246      9249      9250      9246      9249      9251
      9246      9249      9252      9250      9249      9251      9250      9249      9252
      9251      9249      9252      9249      9252      9253      9249      9252      9254
      9249      9252      9255      9253      9252      9254      9253      9252      9255
      9254      9252      9255      9252      9255      9256      9252      9255      9257
      9252      9255      9258      9256      9255      9257      9256      9255      9258
      9257      9255      9258      9255      9258      9259      9255      9258      9260
      9255      9258      9261      9259      9258      9260      9259      9258      9261
      9260      9258      9261      9258      9261      9262      9258      9261      9263
      9258      9261      9264      9262      9261      9263      9262      9261      9264
      9263      9261      9264      9261      9264      9265      9261      9264      9266
      9261      9264      9267      9265      9264      9266      9265      9264      9267
      9266      9264      9267      9264      9267      9268      9264      9267      9269
      9264      9267      9270      9268      9267      9269      9268      9267      9270
      9269      9267      9270      9267      9270      9271      9267      9270      9272
      9267      9270      9273      9271      9270      9272      9271      9270      9273
      9272      9270      9273      9270      9273      9274      9270      9273      9275
      9270      9273      9276      9274      9273      9275      9274      9273      9276
      9275      9273      9276      9273      9276      9277      9273      9276      9278
      9273      9276      9279      9277      9276      9278      9277      9276      9279
      9278      9276      9279      9276      9279      9280      9276      9279      9281
      9276      9279      9282      9280      9279      9281      9280      9279      9282
      9281      9279      9282      9284      9283      9287      9284      9283      9291
      9284      9283      9295      9287      9283      9291      9287      9283      9295
      9291      9283      9295      9283      9284      9285      9283      9284      9286
      9283      9284      9299      9285      9284      9286      9285      9284      9299
      9286      9284      9299      9283      9287      9288      9283      9287      9289
      9283      9287      9290      9288      9287      9289      9288      9287      9290
      9289      9287      9290      9283      9291      9292      9283      9291      9293
      9283      9291      9294      9292      9291      9293      9292      9291      9294
      9293      9291      9294      9283      9295      9296      9283      9295      9297
      9283      9295      9298      9296      9295      9297      9296      9295      9298
      9297      9295      9298      9284      9299      9300      9284      9299      9301
      9284      9299      9305      9300      9299      9301      9300      9299      9305
      9301      9299      9305      9303      9302      9304      9303      9302      9305
      9303      9302      9306      9304      9302      9305      9304      9302      9306
      9305      9302      9306      9299      9305      9302      9302      9306      9307
      9306      9307      9308      9306      9307      9309      9306      9307      9310
      9308      9307      9309      9308      9307      9310      9309      9307      9310
      9307      9310      9311      9307      9310      9312      9307      9310      9318
      9311      9310      9312      9311      9310      9318      9312      9310      9318
      9310      9312      9313      9312      9313      9314      9312      9313      9315
      9314      9313      9315      9313      9315      9316      9313      9315      9317
      9313      9315      9327      9316      9315      9317      9316      9315      9327
      9317      9315      9327      9310      9318      9319      9310      9318      9320
      9310      9318      9321      9319      9318      9320      9319      9318      9321
      9320      9318      9321      9318      9321      9322      9321      9322      9323
      9321      9322      9324      9323      9322      9324      9322      9324      9325
      9322      9324      9326      9322      9324      9374      9325      9324      9326
      9325      9324      9374      9326      9324      9374      9315      9327      9328
      9315      9327      9329      9315      9327      9330      9328      9327      9329
      9328      9327      9330      9329      9327      9330      9327      9330      9331
      9327      9330      9332      9327      9330      9333      9331      9330      9332
      9331      9330      9333      9332      9330      9333      9330      9333      9334
      9330      9333      9335      9330      9333      9336      9334      9333      9335
      9334      9333      9336      9335      9333      9336      9333      9336      9337
      9333      9336      9338      9333      9336      9339      9337      9336      9338
      9337      9336      9339      9338      9336      9339      9336      9339      9340
      9336      9339      9341      9336      9339      9342      9340      9339      9341
      9340      9339      9342      9341      9339      9342      9339      9342      9343
      9339      9342      9344      9339      9342      9345      9343      9342      9344
      9343      9342      9345      9344      9342      9345      9342      9345      9346
      9342      9345      9347      9346      9345      9347      9345      9347      9348
      9345      9347      9349      9348      9347      9349      9347      9349      9350
      9347      9349      9351      9347      9349      9352      9350      9349      9351
      9350      9349      9352      9351      9349      9352      9349      9352      9353
      9349      9352      9354      9349      9352      9355      9353      9352      9354
      9353      9352      9355      9354      9352      9355      9352      9355      9356
      9352      9355      9357      9352      9355      9358      9356      9355      9357
      9356      9355      9358      9357      9355      9358      9355      9358      9359
      9355      9358      9360      9355      9358      9361      9359      9358      9360
      9359      9358      9361      9360      9358      9361      9358      9361      9362
      9358      9361      9363      9358      9361      9364      9362      9361      9363
      9362      9361      9364      9363      9361      9364      9361      9364      9365
      9361      9364      9366      9361      9364      9367      9365      9364      9366
      9365      9364      9367      9366      9364      9367      9364      9367      9368
      9364      9367      9369      9364      9367      9370      9368      9367      9369
      9368      9367      9370      9369      9367      9370      9367      9370      9371
      9367      9370      9372      9367      9370      9373      9371      9370      9372
      9371      9370      9373      9372      9370      9373      9324      9374      9375
      9324      9374      9376      9324      9374      9377      9375      9374      9376
      9375      9374      9377      9376      9374      9377      9374      9377      9378
      9374      9377      9379      9374      9377      9380      9378      9377      9379
      9378      9377      9380      9379      9377      9380      9377      9380      9381
      9377      9380      9382      9377      9380      9383      9381      9380      9382
      9381      9380      9383      9382      9380      9383      9380      9383      9384
      9380      9383      9385      9380      9383      9386      9384      9383      9385
      9384      9383      9386      9385      9383      9386      9383      9386      9387
      9383      9386      9388      9383      9386      9389      9387      9386      9388
      9387      9386      9389      9388      9386      9389      9386      9389      9390
      9386      9389      9391      9386      9389      9392      9390      9389      9391
      9390      9389      9392      9391      9389      9392      9389      9392      9393
      9389      9392      9394      9389      9392      9395      9393      9392      9394
      9393      9392      9395      9394      9392      9395      9392      9395      9396
      9392      9395      9397      9392      9395      9398      9396      9395      9397
      9396      9395      9398      9397      9395      9398      9395      9398      9399
      9395      9398      9400      9395      9398      9401      9399      9398      9400
      9399      9398      9401      9400      9398      9401      9398      9401      9402
      9398      9401      9403      9398      9401      9404      9402      9401      9403
      9402      9401      9404      9403      9401      9404      9401      9404      9405
      9401      9404      9406      9401      9404      9407      9405      9404      9406
      9405      9404      9407      9406      9404      9407      9404      9407      9408
      9404      9407      9409      9404      9407      9410      9408      9407      9409
      9408      9407      9410      9409      9407      9410      9407      9410      9411
      9407      9410      9412      9407      9410      9413      9411      9410      9412
      9411      9410      9413      9412      9410      9413      9410      9413      9414
      9410      9413      9415      9410      9413      9416      9414      9413      9415
      9414      9413      9416      9415      9413      9416      9418      9417      9419
      9418      9417      9420      9418      9417      9421      9419      9417      9420
      9419      9417      9421      9420      9417      9421      9417      9421      9422
      9417      9421      9423      9417      9421      9426      9422      9421      9423
      9422      9421      9426      9423      9421      9426      9421      9423      9424
      9421      9423      9425      9424      9423      9425      9421      9426      9427
      9421      9426      9428      9421      9426      9432      9427      9426      9428
      9427      9426      9432      9428      9426      9432      9430      9429      9431
      9430      9429      9432      9430      9429      9433      9431      9429      9432
      9431      9429      9433      9432      9429      9433      9426      9432      9429
      9429      9433      9434      9433      9434      9435      9433      9434      9436
      9433      9434      9437      9435      9434      9436      9435      9434      9437
      9436      9434      9437      9434      9437      9438      9434      9437      9439
      9434      9437      9445      9438      9437      9439      9438      9437      9445
      9439      9437      9445      9437      9439      9440      9439      9440      9441
      9439      9440      9442      9441      9440      9442      9440      9442      9443
      9440      9442      9444      9440      9442      9454      9443      9442      9444
      9443      9442      9454      9444      9442      9454      9437      9445      9446
      9437      9445      9447      9437      9445      9448      9446      9445      9447
      9446      9445      9448      9447      9445      9448      9445      9448      9449
      9448      9449      9450      9448      9449      9451      9450      9449      9451
      9449      9451      9452      9449      9451      9453      9449      9451      9501
      9452      9451      9453      9452      9451      9501      9453      9451      9501
      9442      9454      9455      9442      9454      9456      9442      9454      9457
      9455      9454      9456      9455      9454      9457      9456      9454      9457
      9454      9457      9458      9454      9457      9459      9454      9457      9460
      9458      9457      9459      9458      9457      9460      9459      9457      9460
      9457      9460      9461      9457      9460      9462      9457      9460      9463
      9461      9460      9462      9461      9460      9463      9462      9460      9463
      9460      9463      9464      9460      9463      9465      9460      9463      9466
      9464      9463      9465      9464      9463      9466      9465      9463      9466
      9463      9466      9467      9463      9466      9468      9463      9466      9469
      9467      9466      9468      9467      9466      9469      9468      9466      9469
      9466      9469      9470      9466      9469      9471      9466      9469      9472
      9470      9469      9471      9470      9469      9472      9471      9469      9472
      9469      9472      9473      9469      9472      9474      9473      9472      9474
      9472      9474      9475      9472      9474      9476      9475      9474      9476
      9474      9476      9477      9474      9476      9478      9474      9476      9479
      9477      9476      9478      9477      9476      9479      9478      9476      9479
      9476      9479      9480      9476      9479      9481      9476      9479      9482
      9480      9479      9481      9480      9479      9482      9481      9479      9482
      9479      9482      9483      9479      9482      9484      9479      9482      9485
      9483      9482      9484      9483      9482      9485      9484      9482      9485
      9482      9485      9486      9482      9485      9487      9482      9485      9488
      9486      9485      9487      9486      9485      9488      9487      9485      9488
      9485      9488      9489      9485      9488      9490      9485      9488      9491
      9489      9488      9490      9489      9488      9491      9490      9488      9491
      9488      9491      9492      9488      9491      9493      9488      9491      9494
      9492      9491      9493      9492      9491      9494      9493      9491      9494
      9491      9494      9495      9491      9494      9496      9491      9494      9497
      9495      9494      9496      9495      9494      9497      9496      9494      9497
      9494      9497      9498      9494      9497      9499      9494      9497      9500
      9498      9497      9499      9498      9497      9500      9499      9497      9500
      9451      9501      9502      9451      9501      9503      9451      9501      9504
      9502      9501      9503      9502      9501      9504      9503      9501      9504
      9501      9504      9505      9501      9504      9506      9501      9504      9507
      9505      9504      9506      9505      9504      9507      9506      9504      9507
      9504      9507      9508      9504      9507      9509      9504      9507      9510
      9508      9507      9509      9508      9507      9510      9509      9507      9510
      9507      9510      9511      9507      9510      9512      9507      9510      9513
      9511      9510      9512      9511      9510      9513      9512      9510      9513
      9510      9513      9514      9510      9513      9515      9510      9513      9516
      9514      9513      9515      9514      9513      9516      9515      9513      9516
      9513      9516      9517      9513      9516      9518      9513      9516      9519
      9517      9516      9518      9517      9516      9519      9518      9516      9519
      9516      9519      9520      9516      9519      9521      9516      9519      9522
      9520      9519      9521      9520      9519      9522      9521      9519      9522
      9519      9522      9523      9519      9522      9524      9519      9522      9525
      9523      9522      9524      9523      9522      9525      9524      9522      9525
      9522      9525      9526      9522      9525      9527      9522      9525      9528
      9526      9525      9527      9526      9525      9528      9527      9525      9528
      9525      9528      9529      9525      9528      9530      9525      9528      9531
      9529      9528      9530      9529      9528      9531      9530      9528      9531
      9528      9531      9532      9528      9531      9533      9528      9531      9534
      9532      9531      9533      9532      9531      9534      9533      9531      9534
      9531      9534      9535      9531      9534      9536      9531      9534      9537
      9535      9534      9536      9535      9534      9537      9536      9534      9537
      9534      9537      9538      9534      9537      9539      9534      9537      9540
      9538      9537      9539      9538      9537      9540      9539      9537      9540
      9537      9540      9541      9537      9540      9542      9537      9540      9543
      9541      9540      9542      9541      9540      9543      9542      9540      9543
      9545      9544      9548      9545      9544      9552      9545      9544      9556
      9548      9544      9552      9548      9544      9556      9552      9544      9556
      9544      9545      9546      9544      9545      9547      9544      9545      9560
      9546      9545      9547      9546      9545      9560      9547      9545      9560
      9544      9548      9549      9544      9548      9550      9544      9548      9551
      9549      9548      9550      9549      9548      9551      9550      9548      9551
      9544      9552      9553      9544      9552      9554      9544      9552      9555
      9553      9552      9554      9553      9552      9555      9554      9552      9555
      9544      9556      9557      9544      9556      9558      9544      9556      9559
      9557      9556      9558      9557      9556      9559      9558      9556      9559
      9545      9560      9561      9545      9560      9562      9545      9560      9566
      9561      9560      9562      9561      9560      9566      9562      9560      9566
      9564      9563      9565      9564      9563      9566      9564      9563      9567
      9565      9563      9566      9565      9563      9567      9566      9563      9567
      9560      9566      9563      9563      9567      9568      9567      9568      9569
      9567      9568      9570      9567      9568      9571      9569      9568      9570
      9569      9568      9571      9570      9568      9571      9568      9571      9572
      9568      9571      9573      9568      9571      9579      9572      9571      9573
      9572      9571      9579      9573      9571      9579      9571      9573      9574
      9573      9574      9575      9573      9574      9576      9575      9574      9576
      9574      9576      9577      9574      9576      9578      9574      9576      9588
      9577      9576      9578      9577      9576      9588      9578      9576      9588
      9571      9579      9580      9571      9579      9581      9571      9579      9582
      9580      9579      9581      9580      9579      9582      9581      9579      9582
      9579      9582      9583      9582      9583      9584      9582      9583      9585
      9584      9583      9585      9583      9585      9586      9583      9585      9587
      9583      9585      9635      9586      9585      9587      9586      9585      9635
      9587      9585      9635      9576      9588      9589      9576      9588      9590
      9576      9588      9591      9589      9588      9590      9589      9588      9591
      9590      9588      9591      9588      9591      9592      9588      9591      9593
      9588      9591      9594      9592      9591      9593      9592      9591      9594
      9593      9591      9594      9591      9594      9595      9591      9594      9596
      9591      9594      9597      9595      9594      9596      9595      9594      9597
      9596      9594      9597      9594      9597      9598      9594      9597      9599
      9594      9597      9600      9598      9597      9599      9598      9597      9600
      9599      9597      9600      9597      9600      9601      9597      9600      9602
      9597      9600      9603      9601      9600      9602      9601      9600      9603
      9602      9600      9603      9600      9603      9604      9600      9603      9605
      9600      9603      9606      9604      9603      9605      9604      9603      9606
      9605      9603      9606      9603      9606      9607      9603      9606      9608
      9607      9606      9608      9606      9608      9609      9606      9608      9610
      9609      9608      9610      9608      9610      9611      9608      9610      9612
      9608      9610      9613      9611      9610      9612      9611      9610      9613
      9612      9610      9613      9610      9613      9614      9610      9613      9615
      9610      9613      9616      9614      9613      9615      9614      9613      9616
      9615      9613      9616      9613      9616      9617      9613      9616      9618
      9613      9616      9619      9617      9616      9618      9617      9616      9619
      9618      9616      9619      9616      9619      9620      9616      9619      9621
      9616      9619      9622      9620      9619      9621      9620      9619      9622
      9621      9619      9622      9619      9622      9623      9619      9622      9624
      9619      9622      9625      9623      9622      9624      9623      9622      9625
      9624      9622      9625      9622      9625      9626      9622      9625      9627
      9622      9625      9628      9626      9625      9627      9626      9625      9628
      9627      9625      9628      9625      9628      9629      9625      9628      9630
      9625      9628      9631      9629      9628      9630      9629      9628      9631
      9630      9628      9631      9628      9631      9632      9628      9631      9633
      9628      9631      9634      9632      9631      9633      9632      9631      9634
      9633      9631      9634      9585      9635      9636      9585      9635      9637
      9585      9635      9638      9636      9635      9637      9636      9635      9638
      9637      9635      9638      9635      9638      9639      9635      9638      9640
      9635      9638      9641      9639      9638      9640      9639      9638      9641
      9640      9638      9641      9638      9641      9642      9638      9641      9643
      9638      9641      9644      9642      9641      9643      9642      9641      9644
      9643      9641      9644      9641      9644      9645      9641      9644      9646
      9641      9644      9647      9645      9644      9646      9645      9644      9647
      9646      9644      9647      9644      9647      9648      9644      9647      9649
      9644      9647      9650      9648      9647      9649      9648      9647      9650
      9649      9647      9650      9647      9650      9651      9647      9650      9652
      9647      9650      9653      9651      9650      9652      9651      9650      9653
      9652      9650      9653      9650      9653      9654      9650      9653      9655
      9650      9653      9656      9654      9653      9655      9654      9653      9656
      9655      9653      9656      9653      9656      9657      9653      9656      9658
      9653      9656      9659      9657      9656      9658      9657      9656      9659
      9658      9656      9659      9656      9659      9660      9656      9659      9661
      9656      9659      9662      9660      9659      9661      9660      9659      9662
      9661      9659      9662      9659      9662      9663      9659      9662      9664
      9659      9662      9665      9663      9662      9664      9663      9662      9665
      9664      9662      9665      9662      9665      9666      9662      9665      9667
      9662      9665      9668      9666      9665      9667      9666      9665      9668
      9667      9665      9668      9665      9668      9669      9665      9668      9670
      9665      9668      9671      9669      9668      9670      9669      9668      9671
      9670      9668      9671      9668      9671      9672      9668      9671      9673
      9668      9671      9674      9672      9671      9673      9672      9671      9674
      9673      9671      9674      9671      9674      9675      9671      9674      9676
      9671      9674      9677      9675      9674      9676      9675      9674      9677
      9676      9674      9677      9679      9678      9680      9679      9678      9681
      9679      9678      9682      9680      9678      9681      9680      9678      9682
      9681      9678      9682      9678      9682      9683      9678      9682      9684
      9678      9682      9687      9683      9682      9684      9683      9682      9687
      9684      9682      9687      9682      9684      9685      9682      9684      9686
      9685      9684      9686      9682      9687      9688      9682      9687      9689
      9682      9687      9693      9688      9687      9689      9688      9687      9693
      9689      9687      9693      9691      9690      9692      9691      9690      9693
      9691      9690      9694      9692      9690      9693      9692      9690      9694
      9693      9690      9694      9687      9693      9690      9690      9694      9695
      9694      9695      9696      9694      9695      9697      9694      9695      9698
      9696      9695      9697      9696      9695      9698      9697      9695      9698
      9695      9698      9699      9695      9698      9700      9695      9698      9706
      9699      9698      9700      9699      9698      9706      9700      9698      9706
      9698      9700      9701      9700      9701      9702      9700      9701      9703
      9702      9701      9703      9701      9703      9704      9701      9703      9705
      9701      9703      9715      9704      9703      9705      9704      9703      9715
      9705      9703      9715      9698      9706      9707      9698      9706      9708
      9698      9706      9709      9707      9706      9708      9707      9706      9709
      9708      9706      9709      9706      9709      9710      9709      9710      9711
      9709      9710      9712      9711      9710      9712      9710      9712      9713
      9710      9712      9714      9710      9712      9762      9713      9712      9714
      9713      9712      9762      9714      9712      9762      9703      9715      9716
      9703      9715      9717      9703      9715      9718      9716      9715      9717
      9716      9715      9718      9717      9715      9718      9715      9718      9719
      9715      9718      9720      9715      9718      9721      9719      9718      9720
      9719      9718      9721      9720      9718      9721      9718      9721      9722
      9718      9721      9723      9718      9721      9724      9722      9721      9723
      9722      9721      9724      9723      9721      9724      9721      9724      9725
      9721      9724      9726      9721      9724      9727      9725      9724      9726
      9725      9724      9727      9726      9724      9727      9724      9727      9728
      9724      9727      9729      9724      9727      9730      9728      9727      9729
      9728      9727      9730      9729      9727      9730      9727      9730      9731
      9727      9730      9732      9727      9730      9733      9731      9730      9732
      9731      9730      9733      9732      9730      9733      9730      9733      9734
      9730      9733      9735      9734      9733      9735      9733      9735      9736
      9733      9735      9737      9736      9735      9737      9735      9737      9738
      9735      9737      9739      9735      9737      9740      9738      9737      9739
      9738      9737      9740      9739      9737      9740      9737      9740      9741
      9737      9740      9742      9737      9740      9743      9741      9740      9742
      9741      9740      9743      9742      9740      9743      9740      9743      9744
      9740      9743      9745      9740      9743      9746      9744      9743      9745
      9744      9743      9746      9745      9743      9746      9743      9746      9747
      9743      9746      9748      9743      9746      9749      9747      9746      9748
      9747      9746      9749      9748      9746      9749      9746      9749      9750
      9746      9749      9751      9746      9749      9752      9750      9749      9751
      9750      9749      9752      9751      9749      9752      9749      9752      9753
      9749      9752      9754      9749      9752      9755      9753      9752      9754
      9753      9752      9755      9754      9752      9755      9752      9755      9756
      9752      9755      9757      9752      9755      9758      9756      9755      9757
      9756      9755      9758      9757      9755      9758      9755      9758      9759
      9755      9758      9760      9755      9758      9761      9759      9758      9760
      9759      9758      9761      9760      9758      9761      9712      9762      9763
      9712      9762      9764      9712      9762      9765      9763      9762      9764
      9763      9762      9765      9764      9762      9765      9762      9765      9766
      9762      9765      9767      9762      9765      9768      9766      9765      9767
      9766      9765      9768      9767      9765      9768      9765      9768      9769
      9765      9768      9770      9765      9768      9771      9769      9768      9770
      9769      9768      9771      9770      9768      9771      9768      9771      9772
      9768      9771      9773      9768      9771      9774      9772      9771      9773
      9772      9771      9774      9773      9771      9774      9771      9774      9775
      9771      9774      9776      9771      9774      9777      9775      9774      9776
      9775      9774      9777      9776      9774      9777      9774      9777      9778
      9774      9777      9779      9774      9777      9780      9778      9777      9779
      9778      9777      9780      9779      9777      9780      9777      9780      9781
      9777      9780      9782      9777      9780      9783      9781      9780      9782
      9781      9780      9783      9782      9780      9783      9780      9783      9784
      9780      9783      9785      9780      9783      9786      9784      9783      9785
      9784      9783      9786      9785      9783      9786      9783      9786      9787
      9783      9786      9788      9783      9786      9789      9787      9786      9788
      9787      9786      9789      9788      9786      9789      9786      9789      9790
      9786      9789      9791      9786      9789      9792      9790      9789      9791
      9790      9789      9792      9791      9789      9792      9789      9792      9793
      9789      9792      9794      9789      9792      9795      9793      9792      9794
      9793      9792      9795      9794      9792      9795      9792      9795      9796
      9792      9795      9797      9792      9795      9798      9796      9795      9797
      9796      9795      9798      9797      9795      9798      9795      9798      9799
      9795      9798      9800      9795      9798      9801      9799      9798      9800
      9799      9798      9801      9800      9798      9801      9798      9801      9802
      9798      9801      9803      9798      9801      9804      9802      9801      9803
      9802      9801      9804      9803      9801      9804      9806      9805      9809
      9806      9805      9813      9806      9805      9817      9809      9805      9813
      9809      9805      9817      9813      9805      9817      9805      9806      9807
      9805      9806      9808      9805      9806      9821      9807      9806      9808
      9807      9806      9821      9808      9806      9821      9805      9809      9810
      9805      9809      9811      9805      9809      9812      9810      9809      9811
      9810      9809      9812      9811      9809      9812      9805      9813      9814
      9805      9813      9815      9805      9813      9816      9814      9813      9815
      9814      9813      9816      9815      9813      9816      9805      9817      9818
      9805      9817      9819      9805      9817      9820      9818      9817      9819
      9818      9817      9820      9819      9817      9820      9806      9821      9822
      9806      9821      9823      9806      9821      9827      9822      9821      9823
      9822      9821      9827      9823      9821      9827      9825      9824      9826
      9825      9824      9827      9825      9824      9828      9826      9824      9827
      9826      9824      9828      9827      9824      9828      9821      9827      9824
      9824      9828      9829      9828      9829      9830      9828      9829      9831
      9828      9829      9832      9830      9829      9831      9830      9829      9832
      9831      9829      9832      9829      9832      9833      9829      9832      9834
      9829      9832      9840      9833      9832      9834      9833      9832      9840
      9834      9832      9840      9832      9834      9835      9834      9835      9836
      9834      9835      9837      9836      9835      9837      9835      9837      9838
      9835      9837      9839      9835      9837      9849      9838      9837      9839
      9838      9837      9849      9839      9837      9849      9832      9840      9841
      9832      9840      9842      9832      9840      9843      9841      9840      9842
      9841      9840      9843      9842      9840      9843      9840      9843      9844
      9843      9844      9845      9843      9844      9846      9845      9844      9846
      9844      9846      9847      9844      9846      9848      9844      9846      9896
      9847      9846      9848      9847      9846      9896      9848      9846      9896
      9837      9849      9850      9837      9849      9851      9837      9849      9852
      9850      9849      9851      9850      9849      9852      9851      9849      9852
      9849      9852      9853      9849      9852      9854      9849      9852      9855
      9853      9852      9854      9853      9852      9855      9854      9852      9855
      9852      9855      9856      9852      9855      9857      9852      9855      9858
      9856      9855      9857      9856      9855      9858      9857      9855      9858
      9855      9858      9859      9855      9858      9860      9855      9858      9861
      9859      9858      9860      9859      9858      9861      9860      9858      9861
      9858      9861      9862      9858      9861      9863      9858      9861      9864
      9862      9861      9863      9862      9861      9864      9863      9861      9864
      9861      9864      9865      9861      9864      9866      9861      9864      9867
      9865      9864      9866      9865      9864      9867      9866      9864      9867
      9864      9867      9868      9864      9867      9869      9868      9867      9869
      9867      9869      9870      9867      9869      9871      9870      9869      9871
      9869      9871      9872      9869      9871      9873      9869      9871      9874
      9872      9871      9873      9872      9871      9874      9873      9871      9874
      9871      9874      9875      9871      9874      9876      9871      9874      9877
      9875      9874      9876      9875      9874      9877      9876      9874      9877
      9874      9877      9878      9874      9877      9879      9874      9877      9880
      9878      9877      9879      9878      9877      9880      9879      9877      9880
      9877      9880      9881      9877      9880      9882      9877      9880      9883
      9881      9880      9882      9881      9880      9883      9882      9880      9883
      9880      9883      9884      9880      9883      9885      9880      9883      9886
      9884      9883      9885      9884      9883      9886      9885      9883      9886
      9883      9886      9887      9883      9886      9888      9883      9886      9889
      9887      9886      9888      9887      9886      9889      9888      9886      9889
      9886      9889      9890      9886      9889      9891      9886      9889      9892
      9890      9889      9891      9890      9889      9892      9891      9889      9892
      9889      9892      9893      9889      9892      9894      9889      9892      9895
      9893      9892      9894      9893      9892      9895      9894      9892      9895
      9846      9896      9897      9846      9896      9898      9846      9896      9899
      9897      9896      9898      9897      9896      9899      9898      9896      9899
      9896      9899      9900      9896      9899      9901      9896      9899      9902
      9900      9899      9901      9900      9899      9902      9901      9899      9902
      9899      9902      9903      9899      9902      9904      9899      9902      9905
      9903      9902      9904      9903      9902      9905      9904      9902      9905
      9902      9905      9906      9902      9905      9907      9902      9905      9908
      9906      9905      9907      9906      9905      9908      9907      9905      9908
      9905      9908      9909      9905      9908      9910      9905      9908      9911
      9909      9908      9910      9909      9908      9911      9910      9908      9911
      9908      9911      9912      9908      9911      9913      9908      9911      9914
      9912      9911      9913      9912      9911      9914      9913      9911      9914
      9911      9914      9915      9911      9914      9916      9911      9914      9917
      9915      9914      9916      9915      9914      9917      9916      9914      9917
      9914      9917      9918      9914      9917      9919      9914      9917      9920
      9918      9917      9919      9918      9917      9920      9919      9917      9920
      9917      9920      9921      9917      9920      9922      9917      9920      9923
      9921      9920      9922      9921      9920      9923      9922      9920      9923
      9920      9923      9924      9920      9923      9925      9920      9923      9926
      9924      9923      9925      9924      9923      9926      9925      9923      9926
      9923      9926      9927      9923      9926      9928      9923      9926      9929
      9927      9926      9928      9927      9926      9929      9928      9926      9929
      9926      9929      9930      9926      9929      9931      9926      9929      9932
      9930      9929      9931      9930      9929      9932      9931      9929      9932
      9929      9932      9933      9929      9932      9934      9929      9932      9935
      9933      9932      9934      9933      9932      9935      9934      9932      9935
      9932      9935      9936      9932      9935      9937      9932      9935      9938
      9936      9935      9937      9936      9935      9938      9937      9935      9938
      9940      9939      9943      9940      9939      9947      9940      9939      9951
      9943      9939      9947      9943      9939      9951      9947      9939      9951
      9939      9940      9941      9939      9940      9942      9939      9940      9955
      9941      9940      9942      9941      9940      9955      9942      9940      9955
      9939      9943      9944      9939      9943      9945      9939      9943      9946
      9944      9943      9945      9944      9943      9946      9945      9943      9946
      9939      9947      9948      9939      9947      9949      9939      9947      9950
      9948      9947      9949      9948      9947      9950      9949      9947      9950
      9939      9951      9952      9939      9951      9953      9939      9951      9954
      9952      9951      9953      9952      9951      9954      9953      9951      9954
      9940      9955      9956      9940      9955      9957      9940      9955      9961
      9956      9955      9957      9956      9955      9961      9957      9955      9961
      9959      9958      9960      9959      9958      9961      9959      9958      9962
      9960      9958      9961      9960      9958      9962      9961      9958      9962
      9955      9961      9958      9958      9962      9963      9962      9963      9964
      9962      9963      9965      9962      9963      9966      9964      9963      9965
      9964      9963      9966      9965      9963      9966      9963      9966      9967
      9963      9966      9968      9963      9966      9974      9967      9966      9968
      9967      9966      9974      9968      9966      9974      9966      9968      9969
      9968      9969      9970      9968      9969      9971      9970      9969      9971
      9969      9971      9972      9969      9971      9973      9969      9971      9983
      9972      9971      9973      9972      9971      9983      9973      9971      9983
      9966      9974      9975      9966      9974      9976      9966      9974      9977
      9975      9974      9976      9975      9974      9977      9976      9974      9977
      9974      9977      9978      9977      9978      9979      9977      9978      9980
      9979      9978      9980      9978      9980      9981      9978      9980      9982
      9978      9980     10030      9981      9980      9982      9981      9980     10030
      9982      9980     10030      9971      9983      9984      9971      9983      9985
      9971      9983      9986      9984      9983      9985      9984      9983      9986
      9985      9983      9986      9983      9986      9987      9983      9986      9988
      9983      9986      9989      9987      9986      9988      9987      9986      9989
      9988      9986      9989      9986      9989      9990      9986      9989      9991
      9986      9989      9992      9990      9989      9991      9990      9989      9992
      9991      9989      9992      9989      9992      9993      9989      9992      9994
      9989      9992      9995      9993      9992      9994      9993      9992      9995
      9994      9992      9995      9992      9995      9996      9992      9995      9997
      9992      9995      9998      9996      9995      9997      9996      9995      9998
      9997      9995      9998      9995      9998      9999      9995      9998     10000
      9995      9998     10001      9999      9998     10000      9999      9998     10001
     10000      9998     10001      9998     10001     10002      9998     10001     10003
     10002     10001     10003     10001     10003     10004     10001     10003     10005
     10004     10003     10005     10003     10005     10006     10003     10005     10007
     10003     10005     10008     10006     10005     10007     10006     10005     10008
     10007     10005     10008     10005     10008     10009     10005     10008     10010
     10005     10008     10011     10009     10008     10010     10009     10008     10011
     10010     10008     10011     10008     10011     10012     10008     10011     10013
     10008     10011     10014     10012     10011     10013     10012     10011     10014
     10013     10011     10014     10011     10014     10015     10011     10014     10016
     10011     10014     10017     10015     10014     10016     10015     10014     10017
     10016     10014     10017     10014     10017     10018     10014     10017     10019
     10014     10017     10020     10018     10017     10019     10018     10017     10020
     10019     10017     10020     10017     10020     10021     10017     10020     10022
     10017     10020     10023     10021     10020     10022     10021     10020     10023
     10022     10020     10023     10020     10023     10024     10020     10023     10025
     10020     10023     10026     10024     10023     10025     10024     10023     10026
     10025     10023     10026     10023     10026     10027     10023     10026     10028
     10023     10026     10029     10027     10026     10028     10027     10026     10029
     10028     10026     10029      9980     10030     10031      9980     10030     10032
      9980     10030     10033     10031     10030     10032     10031     10030     10033
     10032     10030     10033     10030     10033     10034     10030     10033     10035
     10030     10033     10036     10034     10033     10035     10034     10033     10036
     10035     10033     10036     10033     10036     10037     10033     10036     10038
     10033     10036     10039     10037     10036     10038     10037     10036     10039
     10038     10036     10039     10036     10039     10040     10036     10039     10041
     10036     10039     10042     10040     10039     10041     10040     10039     10042
     10041     10039     10042     10039     10042     10043     10039     10042     10044
     10039     10042     10045     10043     10042     10044     10043     10042     10045
     10044     10042     10045     10042     10045     10046     10042     10045     10047
     10042     10045     10048     10046     10045     10047     10046     10045     10048
     10047     10045     10048     10045     10048     10049     10045     10048     10050
     10045     10048     10051     10049     10048     10050     10049     10048     10051
     10050     10048     10051     10048     10051     10052     10048     10051     10053
     10048     10051     10054     10052     10051     10053     10052     10051     10054
     10053     10051     10054     10051     10054     10055     10051     10054     10056
     10051     10054     10057     10055     10054     10056     10055     10054     10057
     10056     10054     10057     10054     10057     10058     10054     10057     10059
     10054     10057     10060     10058     10057     10059     10058     10057     10060
     10059     10057     10060     10057     10060     10061     10057     10060     10062
     10057     10060     10063     10061     10060     10062     10061     10060     10063
     10062     10060     10063     10060     10063     10064     10060     10063     10065
     10060     10063     10066     10064     10063     10065     10064     10063     10066
     10065     10063     10066     10063     10066     10067     10063     10066     10068
     10063     10066     10069     10067     10066     10068     10067     10066     10069
     10068     10066     10069     10066     10069     10070     10066     10069     10071
     10066     10069     10072     10070     10069     10071     10070     10069     10072
     10071     10069     10072     10074     10073     10077     10074     10073     10081
     10074     10073     10085     10077     10073     10081     10077     10073     10085
     10081     10073     10085     10073     10074     10075     10073     10074     10076
     10073     10074     10089     10075     10074     10076     10075     10074     10089
     10076     10074     10089     10073     10077     10078     10073     10077     10079
     10073     10077     10080     10078     10077     10079     10078     10077     10080
     10079     10077     10080     10073     10081     10082     10073     10081     10083
     10073     10081     10084     10082     10081     10083     10082     10081     10084
     10083     10081     10084     10073     10085     10086     10073     10085     10087
     10073     10085     10088     10086     10085     10087     10086     10085     10088
     10087     10085     10088     10074     10089     10090     10074     10089     10091
     10074     10089     10095     10090     10089     10091     10090     10089     10095
     10091     10089     10095     10093     10092     10094     10093     10092     10095
     10093     10092     10096     10094     10092     10095     10094     10092     10096
     10095     10092     10096     10089     10095     10092     10092     10096     10097
     10096     10097     10098     10096     10097     10099     10096     10097     10100
     10098     10097     10099     10098     10097     10100     10099     10097     10100
     10097     10100     10101     10097     10100     10102     10097     10100     10108
     10101     10100     10102     10101     10100     10108     10102     10100     10108
     10100     10102     10103     10102     10103     10104     10102     10103     10105
     10104     10103     10105     10103     10105     10106     10103     10105     10107
     10103     10105     10117     10106     10105     10107     10106     10105     10117
     10107     10105     10117     10100     10108     10109     10100     10108     10110
     10100     10108     10111     10109     10108     10110     10109     10108     10111
     10110     10108     10111     10108     10111     10112     10111     10112     10113
     10111     10112     10114     10113     10112     10114     10112     10114     10115
     10112     10114     10116     10112     10114     10164     10115     10114     10116
     10115     10114     10164     10116     10114     10164     10105     10117     10118
     10105     10117     10119     10105     10117     10120     10118     10117     10119
     10118     10117     10120     10119     10117     10120     10117     10120     10121
     10117     10120     10122     10117     10120     10123     10121     10120     10122
     10121     10120     10123     10122     10120     10123     10120     10123     10124
     10120     10123     10125     10120     10123     10126     10124     10123     10125
     10124     10123     10126     10125     10123     10126     10123     10126     10127
     10123     10126     10128     10123     10126     10129     10127     10126     10128
     10127     10126     10129     10128     10126     10129     10126     10129     10130
     10126     10129     10131     10126     10129     10132     10130     10129     10131
     10130     10129     10132     10131     10129     10132     10129     10132     10133
     10129     10132     10134     10129     10132     10135     10133     10132     10134
     10133     10132     10135     10134     10132     10135     10132     10135     10136
     10132     10135     10137     10136     10135     10137     10135     10137     10138
     10135     10137     10139     10138     10137     10139     10137     10139     10140
     10137     10139     10141     10137     10139     10142     10140     10139     10141
     10140     10139     10142     10141     10139     10142     10139     10142     10143
     10139     10142     10144     10139     10142     10145     10143     10142     10144
     10143     10142     10145     10144     10142     10145     10142     10145     10146
     10142     10145     10147     10142     10145     10148     10146     10145     10147
     10146     10145     10148     10147     10145     10148     10145     10148     10149
     10145     10148     10150     10145     10148     10151     10149     10148     10150
     10149     10148     10151     10150     10148     10151     10148     10151     10152
     10148     10151     10153     10148     10151     10154     10152     10151     10153
     10152     10151     10154     10153     10151     10154     10151     10154     10155
     10151     10154     10156     10151     10154     10157     10155     10154     10156
     10155     10154     10157     10156     10154     10157     10154     10157     10158
     10154     10157     10159     10154     10157     10160     10158     10157     10159
     10158     10157     10160     10159     10157     10160     10157     10160     10161
     10157     10160     10162     10157     10160     10163     10161     10160     10162
     10161     10160     10163     10162     10160     10163     10114     10164     10165
     10114     10164     10166     10114     10164     10167     10165     10164     10166
     10165     10164     10167     10166     10164     10167     10164     10167     10168
     10164     10167     10169     10164     10167     10170     10168     10167     10169
     10168     10167     10170     10169     10167     10170     10167     10170     10171
     10167     10170     10172     10167     10170     10173     10171     10170     10172
     10171     10170     10173     10172     10170     10173     10170     10173     10174
     10170     10173     10175     10170     10173     10176     10174     10173     10175
     10174     10173     10176     10175     10173     10176     10173     10176     10177
     10173     10176     10178     10173     10176     10179     10177     10176     10178
     10177     10176     10179     10178     10176     10179     10176     10179     10180
     10176     10179     10181     10176     10179     10182     10180     10179     10181
     10180     10179     10182     10181     10179     10182     10179     10182     10183
     10179     10182     10184     10179     10182     10185     10183     10182     10184
     10183     10182     10185     10184     10182     10185     10182     10185     10186
     10182     10185     10187     10182     10185     10188     10186     10185     10187
     10186     10185     10188     10187     10185     10188     10185     10188     10189
     10185     10188     10190     10185     10188     10191     10189     10188     10190
     10189     10188     10191     10190     10188     10191     10188     10191     10192
     10188     10191     10193     10188     10191     10194     10192     10191     10193
     10192     10191     10194     10193     10191     10194     10191     10194     10195
     10191     10194     10196     10191     10194     10197     10195     10194     10196
     10195     10194     10197     10196     10194     10197     10194     10197     10198
     10194     10197     10199     10194     10197     10200     10198     10197     10199
     10198     10197     10200     10199     10197     10200     10197     10200     10201
     10197     10200     10202     10197     10200     10203     10201     10200     10202
     10201     10200     10203     10202     10200     10203     10200     10203     10204
     10200     10203     10205     10200     10203     10206     10204     10203     10205
     10204     10203     10206     10205     10203     10206     10208     10207     10209
     10208     10207     10210     10208     10207     10211     10209     10207     10210
     10209     10207     10211     10210     10207     10211     10207     10211     10212
     10207     10211     10213     10207     10211     10216     10212     10211     10213
     10212     10211     10216     10213     10211     10216     10211     10213     10214
     10211     10213     10215     10214     10213     10215     10211     10216     10217
     10211     10216     10218     10211     10216     10222     10217     10216     10218
     10217     10216     10222     10218     10216     10222     10220     10219     10221
     10220     10219     10222     10220     10219     10223     10221     10219     10222
     10221     10219     10223     10222     10219     10223     10216     10222     10219
     10219     10223     10224     10223     10224     10225     10223     10224     10226
     10223     10224     10227     10225     10224     10226     10225     10224     10227
     10226     10224     10227     10224     10227     10228     10224     10227     10229
     10224     10227     10235     10228     10227     10229     10228     10227     10235
     10229     10227     10235     10227     10229     10230     10229     10230     10231
     10229     10230     10232     10231     10230     10232     10230     10232     10233
     10230     10232     10234     10230     10232     10244     10233     10232     10234
     10233     10232     10244     10234     10232     10244     10227     10235     10236
     10227     10235     10237     10227     10235     10238     10236     10235     10237
     10236     10235     10238     10237     10235     10238     10235     10238     10239
     10238     10239     10240     10238     10239     10241     10240     10239     10241
     10239     10241     10242     10239     10241     10243     10239     10241     10291
     10242     10241     10243     10242     10241     10291     10243     10241     10291
     10232     10244     10245     10232     10244     10246     10232     10244     10247
     10245     10244     10246     10245     10244     10247     10246     10244     10247
     10244     10247     10248     10244     10247     10249     10244     10247     10250
     10248     10247     10249     10248     10247     10250     10249     10247     10250
     10247     10250     10251     10247     10250     10252     10247     10250     10253
     10251     10250     10252     10251     10250     10253     10252     10250     10253
     10250     10253     10254     10250     10253     10255     10250     10253     10256
     10254     10253     10255     10254     10253     10256     10255     10253     10256
     10253     10256     10257     10253     10256     10258     10253     10256     10259
     10257     10256     10258     10257     10256     10259     10258     10256     10259
     10256     10259     10260     10256     10259     10261     10256     10259     10262
     10260     10259     10261     10260     10259     10262     10261     10259     10262
     10259     10262     10263     10259     10262     10264     10263     10262     10264
     10262     10264     10265     10262     10264     10266     10265     10264     10266
     10264     10266     10267     10264     10266     10268     10264     10266     10269
     10267     10266     10268     10267     10266     10269     10268     10266     10269
     10266     10269     10270     10266     10269     10271     10266     10269     10272
     10270     10269     10271     10270     10269     10272     10271     10269     10272
     10269     10272     10273     10269     10272     10274     10269     10272     10275
     10273     10272     10274     10273     10272     10275     10274     10272     10275
     10272     10275     10276     10272     10275     10277     10272     10275     10278
     10276     10275     10277     10276     10275     10278     10277     10275     10278
     10275     10278     10279     10275     10278     10280     10275     10278     10281
     10279     10278     10280     10279     10278     10281     10280     10278     10281
     10278     10281     10282     10278     10281     10283     10278     10281     10284
     10282     10281     10283     10282     10281     10284     10283     10281     10284
     10281     10284     10285     10281     10284     10286     10281     10284     10287
     10285     10284     10286     10285     10284     10287     10286     10284     10287
     10284     10287     10288     10284     10287     10289     10284     10287     10290
     10288     10287     10289     10288     10287     10290     10289     10287     10290
     10241     10291     10292     10241     10291     10293     10241     10291     10294
     10292     10291     10293     10292     10291     10294     10293     10291     10294
     10291     10294     10295     10291     10294     10296     10291     10294     10297
     10295     10294     10296     10295     10294     10297     10296     10294     10297
     10294     10297     10298     10294     10297     10299     10294     10297     10300
     10298     10297     10299     10298     10297     10300     10299     10297     10300
     10297     10300     10301     10297     10300     10302     10297     10300     10303
     10301     10300     10302     10301     10300     10303     10302     10300     10303
     10300     10303     10304     10300     10303     10305     10300     10303     10306
     10304     10303     10305     10304     10303     10306     10305     10303     10306
     10303     10306     10307     10303     10306     10308     10303     10306     10309
     10307     10306     10308     10307     10306     10309     10308     10306     10309
     10306     10309     10310     10306     10309     10311     10306     10309     10312
     10310     10309     10311     10310     10309     10312     10311     10309     10312
     10309     10312     10313     10309     10312     10314     10309     10312     10315
     10313     10312     10314     10313     10312     10315     10314     10312     10315
     10312     10315     10316     10312     10315     10317     10312     10315     10318
     10316     10315     10317     10316     10315     10318     10317     10315     10318
     10315     10318     10319     10315     10318     10320     10315     10318     10321
     10319     10318     10320     10319     10318     10321     10320     10318     10321
     10318     10321     10322     10318     10321     10323     10318     10321     10324
     10322     10321     10323     10322     10321     10324     10323     10321     10324
     10321     10324     10325     10321     10324     10326     10321     10324     10327
     10325     10324     10326     10325     10324     10327     10326     10324     10327
     10324     10327     10328     10324     10327     10329     10324     10327     10330
     10328     10327     10329     10328     10327     10330     10329     10327     10330
     10327     10330     10331     10327     10330     10332     10327     10330     10333
     10331     10330     10332     10331     10330     10333     10332     10330     10333
     10335     10334     10338     10335     10334     10342     10335     10334     10346
     10338     10334     10342     10338     10334     10346     10342     10334     10346
     10334     10335     10336     10334     10335     10337     10334     10335     10350
     10336     10335     10337     10336     10335     10350     10337     10335     10350
     10334     10338     10339     10334     10338     10340     10334     10338     10341
     10339     10338     10340     10339     10338     10341     10340     10338     10341
     10334     10342     10343     10334     10342     10344     10334     10342     10345
     10343     10342     10344     10343     10342     10345     10344     10342     10345
     10334     10346     10347     10334     10346     10348     10334     10346     10349
     10347     10346     10348     10347     10346     10349     10348     10346     10349
     10335     10350     10351     10335     10350     10352     10335     10350     10356
     10351     10350     10352     10351     10350     10356     10352     10350     10356
     10354     10353     10355     10354     10353     10356     10354     10353     10357
     10355     10353     10356     10355     10353     10357     10356     10353     10357
     10350     10356     10353     10353     10357     10358     10357     10358     10359
     10357     10358     10360     10357     10358     10361     10359     10358     10360
     10359     10358     10361     10360     10358     10361     10358     10361     10362
     10358     10361     10363     10358     10361     10369     10362     10361     10363
     10362     10361     10369     10363     10361     10369     10361     10363     10364
     10363     10364     10365     10363     10364     10366     10365     10364     10366
     10364     10366     10367     10364     10366     10368     10364     10366     10378
     10367     10366     10368     10367     10366     10378     10368     10366     10378
     10361     10369     10370     10361     10369     10371     10361     10369     10372
     10370     10369     10371     10370     10369     10372     10371     10369     10372
     10369     10372     10373     10372     10373     10374     10372     10373     10375
     10374     10373     10375     10373     10375     10376     10373     10375     10377
     10373     10375     10425     10376     10375     10377     10376     10375     10425
     10377     10375     10425     10366     10378     10379     10366     10378     10380
     10366     10378     10381     10379     10378     10380     10379     10378     10381
     10380     10378     10381     10378     10381     10382     10378     10381     10383
     10378     10381     10384     10382     10381     10383     10382     10381     10384
     10383     10381     10384     10381     10384     10385     10381     10384     10386
     10381     10384     10387     10385     10384     10386     10385     10384     10387
     10386     10384     10387     10384     10387     10388     10384     10387     10389
     10384     10387     10390     10388     10387     10389     10388     10387     10390
     10389     10387     10390     10387     10390     10391     10387     10390     10392
     10387     10390     10393     10391     10390     10392     10391     10390     10393
     10392     10390     10393     10390     10393     10394     10390     10393     10395
     10390     10393     10396     10394     10393     10395     10394     10393     10396
     10395     10393     10396     10393     10396     10397     10393     10396     10398
     10397     10396     10398     10396     10398     10399     10396     10398     10400
     10399     10398     10400     10398     10400     10401     10398     10400     10402
     10398     10400     10403     10401     10400     10402     10401     10400     10403
     10402     10400     10403     10400     10403     10404     10400     10403     10405
     10400     10403     10406     10404     10403     10405     10404     10403     10406
     10405     10403     10406     10403     10406     10407     10403     10406     10408
     10403     10406     10409     10407     10406     10408     10407     10406     10409
     10408     10406     10409     10406     10409     10410     10406     10409     10411
     10406     10409     10412     10410     10409     10411     10410     10409     10412
     10411     10409     10412     10409     10412     10413     10409     10412     10414
     10409     10412     10415     10413     10412     10414     10413     10412     10415
     10414     10412     10415     10412     10415     10416     10412     10415     10417
     10412     10415     10418     10416     10415     10417     10416     10415     10418
     10417     10415     10418     10415     10418     10419     10415     10418     10420
     10415     10418     10421     10419     10418     10420     10419     10418     10421
     10420     10418     10421     10418     10421     10422     10418     10421     10423
     10418     10421     10424     10422     10421     10423     10422     10421     10424
     10423     10421     10424     10375     10425     10426     10375     10425     10427
     10375     10425     10428     10426     10425     10427     10426     10425     10428
     10427     10425     10428     10425     10428     10429     10425     10428     10430
     10425     10428     10431     10429     10428     10430     10429     10428     10431
     10430     10428     10431     10428     10431     10432     10428     10431     10433
     10428     10431     10434     10432     10431     10433     10432     10431     10434
     10433     10431     10434     10431     10434     10435     10431     10434     10436
     10431     10434     10437     10435     10434     10436     10435     10434     10437
     10436     10434     10437     10434     10437     10438     10434     10437     10439
     10434     10437     10440     10438     10437     10439     10438     10437     10440
     10439     10437     10440     10437     10440     10441     10437     10440     10442
     10437     10440     10443     10441     10440     10442     10441     10440     10443
     10442     10440     10443     10440     10443     10444     10440     10443     10445
     10440     10443     10446     10444     10443     10445     10444     10443     10446
     10445     10443     10446     10443     10446     10447     10443     10446     10448
     10443     10446     10449     10447     10446     10448     10447     10446     10449
     10448     10446     10449     10446     10449     10450     10446     10449     10451
     10446     10449     10452     10450     10449     10451     10450     10449     10452
     10451     10449     10452     10449     10452     10453     10449     10452     10454
     10449     10452     10455     10453     10452     10454     10453     10452     10455
     10454     10452     10455     10452     10455     10456     10452     10455     10457
     10452     10455     10458     10456     10455     10457     10456     10455     10458
     10457     10455     10458     10455     10458     10459     10455     10458     10460
     10455     10458     10461     10459     10458     10460     10459     10458     10461
     10460     10458     10461     10458     10461     10462     10458     10461     10463
     10458     10461     10464     10462     10461     10463     10462     10461     10464
     10463     10461     10464     10461     10464     10465     10461     10464     10466
     10461     10464     10467     10465     10464     10466     10465     10464     10467
     10466     10464     10467     10469     10468     10470     10469     10468     10471
     10469     10468     10472     10470     10468     10471     10470     10468     10472
     10471     10468     10472     10468     10472     10473     10468     10472     10474
     10468     10472     10477     10473     10472     10474     10473     10472     10477
     10474     10472     10477     10472     10474     10475     10472     10474     10476
     10475     10474     10476     10472     10477     10478     10472     10477     10479
     10472     10477     10483     10478     10477     10479     10478     10477     10483
     10479     10477     10483     10481     10480     10482     10481     10480     10483
     10481     10480     10484     10482     10480     10483     10482     10480     10484
     10483     10480     10484     10477     10483     10480     10480     10484     10485
     10484     10485     10486     10484     10485     10487     10484     10485     10488
     10486     10485     10487     10486     10485     10488     10487     10485     10488
     10485     10488     10489     10485     10488     10490     10485     10488     10496
     10489     10488     10490     10489     10488     10496     10490     10488     10496
     10488     10490     10491     10490     10491     10492     10490     10491     10493
     10492     10491     10493     10491     10493     10494     10491     10493     10495
     10491     10493     10505     10494     10493     10495     10494     10493     10505
     10495     10493     10505     10488     10496     10497     10488     10496     10498
     10488     10496     10499     10497     10496     10498     10497     10496     10499
     10498     10496     10499     10496     10499     10500     10499     10500     10501
     10499     10500     10502     10501     10500     10502     10500     10502     10503
     10500     10502     10504     10500     10502     10552     10503     10502     10504
     10503     10502     10552     10504     10502     10552     10493     10505     10506
     10493     10505     10507     10493     10505     10508     10506     10505     10507
     10506     10505     10508     10507     10505     10508     10505     10508     10509
     10505     10508     10510     10505     10508     10511     10509     10508     10510
     10509     10508     10511     10510     10508     10511     10508     10511     10512
     10508     10511     10513     10508     10511     10514     10512     10511     10513
     10512     10511     10514     10513     10511     10514     10511     10514     10515
     10511     10514     10516     10511     10514     10517     10515     10514     10516
     10515     10514     10517     10516     10514     10517     10514     10517     10518
     10514     10517     10519     10514     10517     10520     10518     10517     10519
     10518     10517     10520     10519     10517     10520     10517     10520     10521
     10517     10520     10522     10517     10520     10523     10521     10520     10522
     10521     10520     10523     10522     10520     10523     10520     10523     10524
     10520     10523     10525     10524     10523     10525     10523     10525     10526
     10523     10525     10527     10526     10525     10527     10525     10527     10528
     10525     10527     10529     10525     10527     10530     10528     10527     10529
     10528     10527     10530     10529     10527     10530     10527     10530     10531
     10527     10530     10532     10527     10530     10533     10531     10530     10532
     10531     10530     10533     10532     10530     10533     10530     10533     10534
     10530     10533     10535     10530     10533     10536     10534     10533     10535
     10534     10533     10536     10535     10533     10536     10533     10536     10537
     10533     10536     10538     10533     10536     10539     10537     10536     10538
     10537     10536     10539     10538     10536     10539     10536     10539     10540
     10536     10539     10541     10536     10539     10542     10540     10539     10541
     10540     10539     10542     10541     10539     10542     10539     10542     10543
     10539     10542     10544     10539     10542     10545     10543     10542     10544
     10543     10542     10545     10544     10542     10545     10542     10545     10546
     10542     10545     10547     10542     10545     10548     10546     10545     10547
     10546     10545     10548     10547     10545     10548     10545     10548     10549
     10545     10548     10550     10545     10548     10551     10549     10548     10550
     10549     10548     10551     10550     10548     10551     10502     10552     10553
     10502     10552     10554     10502     10552     10555     10553     10552     10554
     10553     10552     10555     10554     10552     10555     10552     10555     10556
     10552     10555     10557     10552     10555     10558     10556     10555     10557
     10556     10555     10558     10557     10555     10558     10555     10558     10559
     10555     10558     10560     10555     10558     10561     10559     10558     10560
     10559     10558     10561     10560     10558     10561     10558     10561     10562
     10558     10561     10563     10558     10561     10564     10562     10561     10563
     10562     10561     10564     10563     10561     10564     10561     10564     10565
     10561     10564     10566     10561     10564     10567     10565     10564     10566
     10565     10564     10567     10566     10564     10567     10564     10567     10568
     10564     10567     10569     10564     10567     10570     10568     10567     10569
     10568     10567     10570     10569     10567     10570     10567     10570     10571
     10567     10570     10572     10567     10570     10573     10571     10570     10572
     10571     10570     10573     10572     10570     10573     10570     10573     10574
     10570     10573     10575     10570     10573     10576     10574     10573     10575
     10574     10573     10576     10575     10573     10576     10573     10576     10577
     10573     10576     10578     10573     10576     10579     10577     10576     10578
     10577     10576     10579     10578     10576     10579     10576     10579     10580
     10576     10579     10581     10576     10579     10582     10580     10579     10581
     10580     10579     10582     10581     10579     10582     10579     10582     10583
     10579     10582     10584     10579     10582     10585     10583     10582     10584
     10583     10582     10585     10584     10582     10585     10582     10585     10586
     10582     10585     10587     10582     10585     10588     10586     10585     10587
     10586     10585     10588     10587     10585     10588     10585     10588     10589
     10585     10588     10590     10585     10588     10591     10589     10588     10590
     10589     10588     10591     10590     10588     10591     10588     10591     10592
     10588     10591     10593     10588     10591     10594     10592     10591     10593
     10592     10591     10594     10593     10591     10594     10596     10595     10597
     10596     10595     10598     10596     10595     10599     10597     10595     10598
     10597     10595     10599     10598     10595     10599     10595     10599     10600
     10595     10599     10601     10595     10599     10604     10600     10599     10601
     10600     10599     10604     10601     10599     10604     10599     10601     10602
     10599     10601     10603     10602     10601     10603     10599     10604     10605
     10599     10604     10606     10599     10604     10610     10605     10604     10606
     10605     10604     10610     10606     10604     10610     10608     10607     10609
     10608     10607     10610     10608     10607     10611     10609     10607     10610
     10609     10607     10611     10610     10607     10611     10604     10610     10607
     10607     10611     10612     10611     10612     10613     10611     10612     10614
     10611     10612     10615     10613     10612     10614     10613     10612     10615
     10614     10612     10615     10612     10615     10616     10612     10615     10617
     10612     10615     10623     10616     10615     10617     10616     10615     10623
     10617     10615     10623     10615     10617     10618     10617     10618     10619
     10617     10618     10620     10619     10618     10620     10618     10620     10621
     10618     10620     10622     10618     10620     10632     10621     10620     10622
     10621     10620     10632     10622     10620     10632     10615     10623     10624
     10615     10623     10625     10615     10623     10626     10624     10623     10625
     10624     10623     10626     10625     10623     10626     10623     10626     10627
     10626     10627     10628     10626     10627     10629     10628     10627     10629
     10627     10629     10630     10627     10629     10631     10627     10629     10679
     10630     10629     10631     10630     10629     10679     10631     10629     10679
     10620     10632     10633     10620     10632     10634     10620     10632     10635
     10633     10632     10634     10633     10632     10635     10634     10632     10635
     10632     10635     10636     10632     10635     10637     10632     10635     10638
     10636     10635     10637     10636     10635     10638     10637     10635     10638
     10635     10638     10639     10635     10638     10640     10635     10638     10641
     10639     10638     10640     10639     10638     10641     10640     10638     10641
     10638     10641     10642     10638     10641     10643     10638     10641     10644
     10642     10641     10643     10642     10641     10644     10643     10641     10644
     10641     10644     10645     10641     10644     10646     10641     10644     10647
     10645     10644     10646     10645     10644     10647     10646     10644     10647
     10644     10647     10648     10644     10647     10649     10644     10647     10650
     10648     10647     10649     10648     10647     10650     10649     10647     10650
     10647     10650     10651     10647     10650     10652     10651     10650     10652
     10650     10652     10653     10650     10652     10654     10653     10652     10654
     10652     10654     10655     10652     10654     10656     10652     10654     10657
     10655     10654     10656     10655     10654     10657     10656     10654     10657
     10654     10657     10658     10654     10657     10659     10654     10657     10660
     10658     10657     10659     10658     10657     10660     10659     10657     10660
     10657     10660     10661     10657     10660     10662     10657     10660     10663
     10661     10660     10662     10661     10660     10663     10662     10660     10663
     10660     10663     10664     10660     10663     10665     10660     10663     10666
     10664     10663     10665     10664     10663     10666     10665     10663     10666
     10663     10666     10667     10663     10666     10668     10663     10666     10669
     10667     10666     10668     10667     10666     10669     10668     10666     10669
     10666     10669     10670     10666     10669     10671     10666     10669     10672
     10670     10669     10671     10670     10669     10672     10671     10669     10672
     10669     10672     10673     10669     10672     10674     10669     10672     10675
     10673     10672     10674     10673     10672     10675     10674     10672     10675
     10672     10675     10676     10672     10675     10677     10672     10675     10678
     10676     10675     10677     10676     10675     10678     10677     10675     10678
     10629     10679     10680     10629     10679     10681     10629     10679     10682
     10680     10679     10681     10680     10679     10682     10681     10679     10682
     10679     10682     10683     10679     10682     10684     10679     10682     10685
     10683     10682     10684     10683     10682     10685     10684     10682     10685
     10682     10685     10686     10682     10685     10687     10682     10685     10688
     10686     10685     10687     10686     10685     10688     10687     10685     10688
     10685     10688     10689     10685     10688     10690     10685     10688     10691
     10689     10688     10690     10689     10688     10691     10690     10688     10691
     10688     10691     10692     10688     10691     10693     10688     10691     10694
     10692     10691     10693     10692     10691     10694     10693     10691     10694
     10691     10694     10695     10691     10694     10696     10691     10694     10697
     10695     10694     10696     10695     10694     10697     10696     10694     10697
     10694     10697     10698     10694     10697     10699     10694     10697     10700
     10698     10697     10699     10698     10697     10700     10699     10697     10700
     10697     10700     10701     10697     10700     10702     10697     10700     10703
     10701     10700     10702     10701     10700     10703     10702     10700     10703
     10700     10703     10704     10700     10703     10705     10700     10703     10706
     10704     10703     10705     10704     10703     10706     10705     10703     10706
     10703     10706     10707     10703     10706     10708     10703     10706     10709
     10707     10706     10708     10707     10706     10709     10708     10706     10709
     10706     10709     10710     10706     10709     10711     10706     10709     10712
     10710     10709     10711     10710     10709     10712     10711     10709     10712
     10709     10712     10713     10709     10712     10714     10709     10712     10715
     10713     10712     10714     10713     10712     10715     10714     10712     10715
     10712     10715     10716     10712     10715     10717     10712     10715     10718
     10716     10715     10717     10716     10715     10718     10717     10715     10718
     10715     10718     10719     10715     10718     10720     10715     10718     10721
     10719     10718     10720     10719     10718     10721     10720     10718     10721
     10723     10722     10726     10723     10722     10730     10723     10722     10734
     10726     10722     10730     10726     10722     10734     10730     10722     10734
     10722     10723     10724     10722     10723     10725     10722     10723     10738
     10724     10723     10725     10724     10723     10738     10725     10723     10738
     10722     10726     10727     10722     10726     10728     10722     10726     10729
     10727     10726     10728     10727     10726     10729     10728     10726     10729
     10722     10730     10731     10722     10730     10732     10722     10730     10733
     10731     10730     10732     10731     10730     10733     10732     10730     10733
     10722     10734     10735     10722     10734     10736     10722     10734     10737
     10735     10734     10736     10735     10734     10737     10736     10734     10737
     10723     10738     10739     10723     10738     10740     10723     10738     10744
     10739     10738     10740     10739     10738     10744     10740     10738     10744
     10742     10741     10743     10742     10741     10744     10742     10741     10745
     10743     10741     10744     10743     10741     10745     10744     10741     10745
     10738     10744     10741     10741     10745     10746     10745     10746     10747
     10745     10746     10748     10745     10746     10749     10747     10746     10748
     10747     10746     10749     10748     10746     10749     10746     10749     10750
     10746     10749     10751     10746     10749     10757     10750     10749     10751
     10750     10749     10757     10751     10749     10757     10749     10751     10752
     10751     10752     10753     10751     10752     10754     10753     10752     10754
     10752     10754     10755     10752     10754     10756     10752     10754     10766
     10755     10754     10756     10755     10754     10766     10756     10754     10766
     10749     10757     10758     10749     10757     10759     10749     10757     10760
     10758     10757     10759     10758     10757     10760     10759     10757     10760
     10757     10760     10761     10760     10761     10762     10760     10761     10763
     10762     10761     10763     10761     10763     10764     10761     10763     10765
     10761     10763     10813     10764     10763     10765     10764     10763     10813
     10765     10763     10813     10754     10766     10767     10754     10766     10768
     10754     10766     10769     10767     10766     10768     10767     10766     10769
     10768     10766     10769     10766     10769     10770     10766     10769     10771
     10766     10769     10772     10770     10769     10771     10770     10769     10772
     10771     10769     10772     10769     10772     10773     10769     10772     10774
     10769     10772     10775     10773     10772     10774     10773     10772     10775
     10774     10772     10775     10772     10775     10776     10772     10775     10777
     10772     10775     10778     10776     10775     10777     10776     10775     10778
     10777     10775     10778     10775     10778     10779     10775     10778     10780
     10775     10778     10781     10779     10778     10780     10779     10778     10781
     10780     10778     10781     10778     10781     10782     10778     10781     10783
     10778     10781     10784     10782     10781     10783     10782     10781     10784
     10783     10781     10784     10781     10784     10785     10781     10784     10786
     10785     10784     10786     10784     10786     10787     10784     10786     10788
     10787     10786     10788     10786     10788     10789     10786     10788     10790
     10786     10788     10791     10789     10788     10790     10789     10788     10791
     10790     10788     10791     10788     10791     10792     10788     10791     10793
     10788     10791     10794     10792     10791     10793     10792     10791     10794
     10793     10791     10794     10791     10794     10795     10791     10794     10796
     10791     10794     10797     10795     10794     10796     10795     10794     10797
     10796     10794     10797     10794     10797     10798     10794     10797     10799
     10794     10797     10800     10798     10797     10799     10798     10797     10800
     10799     10797     10800     10797     10800     10801     10797     10800     10802
     10797     10800     10803     10801     10800     10802     10801     10800     10803
     10802     10800     10803     10800     10803     10804     10800     10803     10805
     10800     10803     10806     10804     10803     10805     10804     10803     10806
     10805     10803     10806     10803     10806     10807     10803     10806     10808
     10803     10806     10809     10807     10806     10808     10807     10806     10809
     10808     10806     10809     10806     10809     10810     10806     10809     10811
     10806     10809     10812     10810     10809     10811     10810     10809     10812
     10811     10809     10812     10763     10813     10814     10763     10813     10815
     10763     10813     10816     10814     10813     10815     10814     10813     10816
     10815     10813     10816     10813     10816     10817     10813     10816     10818
     10813     10816     10819     10817     10816     10818     10817     10816     10819
     10818     10816     10819     10816     10819     10820     10816     10819     10821
     10816     10819     10822     10820     10819     10821     10820     10819     10822
     10821     10819     10822     10819     10822     10823     10819     10822     10824
     10819     10822     10825     10823     10822     10824     10823     10822     10825
     10824     10822     10825     10822     10825     10826     10822     10825     10827
     10822     10825     10828     10826     10825     10827     10826     10825     10828
     10827     10825     10828     10825     10828     10829     10825     10828     10830
     10825     10828     10831     10829     10828     10830     10829     10828     10831
     10830     10828     10831     10828     10831     10832     10828     10831     10833
     10828     10831     10834     10832     10831     10833     10832     10831     10834
     10833     10831     10834     10831     10834     10835     10831     10834     10836
     10831     10834     10837     10835     10834     10836     10835     10834     10837
     10836     10834     10837     10834     10837     10838     10834     10837     10839
     10834     10837     10840     10838     10837     10839     10838     10837     10840
     10839     10837     10840     10837     10840     10841     10837     10840     10842
     10837     10840     10843     10841     10840     10842     10841     10840     10843
     10842     10840     10843     10840     10843     10844     10840     10843     10845
     10840     10843     10846     10844     10843     10845     10844     10843     10846
     10845     10843     10846     10843     10846     10847     10843     10846     10848
     10843     10846     10849     10847     10846     10848     10847     10846     10849
     10848     10846     10849     10846     10849     10850     10846     10849     10851
     10846     10849     10852     10850     10849     10851     10850     10849     10852
     10851     10849     10852     10849     10852     10853     10849     10852     10854
     10849     10852     10855     10853     10852     10854     10853     10852     10855
     10854     10852     10855     10857     10856     10860     10857     10856     10864
     10857     10856     10868     10860     10856     10864     10860     10856     10868
     10864     10856     10868     10856     10857     10858     10856     10857     10859
     10856     10857     10872     10858     10857     10859     10858     10857     10872
     10859     10857     10872     10856     10860     10861     10856     10860     10862
     10856     10860     10863     10861     10860     10862     10861     10860     10863
     10862     10860     10863     10856     10864     10865     10856     10864     10866
     10856     10864     10867     10865     10864     10866     10865     10864     10867
     10866     10864     10867     10856     10868     10869     10856     10868     10870
     10856     10868     10871     10869     10868     10870     10869     10868     10871
     10870     10868     10871     10857     10872     10873     10857     10872     10874
     10857     10872     10878     10873     10872     10874     10873     10872     10878
     10874     10872     10878     10876     10875     10877     10876     10875     10878
     10876     10875     10879     10877     10875     10878     10877     10875     10879
     10878     10875     10879     10872     10878     10875     10875     10879     10880
     10879     10880     10881     10879     10880     10882     10879     10880     10883
     10881     10880     10882     10881     10880     10883     10882     10880     10883
     10880     10883     10884     10880     10883     10885     10880     10883     10891
     10884     10883     10885     10884     10883     10891     10885     10883     10891
     10883     10885     10886     10885     10886     10887     10885     10886     10888
     10887     10886     10888     10886     10888     10889     10886     10888     10890
     10886     10888     10900     10889     10888     10890     10889     10888     10900
     10890     10888     10900     10883     10891     10892     10883     10891     10893
     10883     10891     10894     10892     10891     10893     10892     10891     10894
     10893     10891     10894     10891     10894     10895     10894     10895     10896
     10894     10895     10897     10896     10895     10897     10895     10897     10898
     10895     10897     10899     10895     10897     10947     10898     10897     10899
     10898     10897     10947     10899     10897     10947     10888     10900     10901
     10888     10900     10902     10888     10900     10903     10901     10900     10902
     10901     10900     10903     10902     10900     10903     10900     10903     10904
     10900     10903     10905     10900     10903     10906     10904     10903     10905
     10904     10903     10906     10905     10903     10906     10903     10906     10907
     10903     10906     10908     10903     10906     10909     10907     10906     10908
     10907     10906     10909     10908     10906     10909     10906     10909     10910
     10906     10909     10911     10906     10909     10912     10910     10909     10911
     10910     10909     10912     10911     10909     10912     10909     10912     10913
     10909     10912     10914     10909     10912     10915     10913     10912     10914
     10913     10912     10915     10914     10912     10915     10912     10915     10916
     10912     10915     10917     10912     10915     10918     10916     10915     10917
     10916     10915     10918     10917     10915     10918     10915     10918     10919
     10915     10918     10920     10919     10918     10920     10918     10920     10921
     10918     10920     10922     10921     10920     10922     10920     10922     10923
     10920     10922     10924     10920     10922     10925     10923     10922     10924
     10923     10922     10925     10924     10922     10925     10922     10925     10926
     10922     10925     10927     10922     10925     10928     10926     10925     10927
     10926     10925     10928     10927     10925     10928     10925     10928     10929
     10925     10928     10930     10925     10928     10931     10929     10928     10930
     10929     10928     10931     10930     10928     10931     10928     10931     10932
     10928     10931     10933     10928     10931     10934     10932     10931     10933
     10932     10931     10934     10933     10931     10934     10931     10934     10935
     10931     10934     10936     10931     10934     10937     10935     10934     10936
     10935     10934     10937     10936     10934     10937     10934     10937     10938
     10934     10937     10939     10934     10937     10940     10938     10937     10939
     10938     10937     10940     10939     10937     10940     10937     10940     10941
     10937     10940     10942     10937     10940     10943     10941     10940     10942
     10941     10940     10943     10942     10940     10943     10940     10943     10944
     10940     10943     10945     10940     10943     10946     10944     10943     10945
     10944     10943     10946     10945     10943     10946     10897     10947     10948
     10897     10947     10949     10897     10947     10950     10948     10947     10949
     10948     10947     10950     10949     10947     10950     10947     10950     10951
     10947     10950     10952     10947     10950     10953     10951     10950     10952
     10951     10950     10953     10952     10950     10953     10950     10953     10954
     10950     10953     10955     10950     10953     10956     10954     10953     10955
     10954     10953     10956     10955     10953     10956     10953     10956     10957
     10953     10956     10958     10953     10956     10959     10957     10956     10958
     10957     10956     10959     10958     10956     10959     10956     10959     10960
     10956     10959     10961     10956     10959     10962     10960     10959     10961
     10960     10959     10962     10961     10959     10962     10959     10962     10963
     10959     10962     10964     10959     10962     10965     10963     10962     10964
     10963     10962     10965     10964     10962     10965     10962     10965     10966
     10962     10965     10967     10962     10965     10968     10966     10965     10967
     10966     10965     10968     10967     10965     10968     10965     10968     10969
     10965     10968     10970     10965     10968     10971     10969     10968     10970
     10969     10968     10971     10970     10968     10971     10968     10971     10972
     10968     10971     10973     10968     10971     10974     10972     10971     10973
     10972     10971     10974     10973     10971     10974     10971     10974     10975
     10971     10974     10976     10971     10974     10977     10975     10974     10976
     10975     10974     10977     10976     10974     10977     10974     10977     10978
     10974     10977     10979     10974     10977     10980     10978     10977     10979
     10978     10977     10980     10979     10977     10980     10977     10980     10981
     10977     10980     10982     10977     10980     10983     10981     10980     10982
     10981     10980     10983     10982     10980     10983     10980     10983     10984
     10980     10983     10985     10980     10983     10986     10984     10983     10985
     10984     10983     10986     10985     10983     10986     10983     10986     10987
     10983     10986     10988     10983     10986     10989     10987     10986     10988
     10987     10986     10989     10988     10986     10989     10991     10990     10994
     10991     10990     10998     10991     10990     11002     10994     10990     10998
     10994     10990     11002     10998     10990     11002     10990     10991     10992
     10990     10991     10993     10990     10991     11006     10992     10991     10993
     10992     10991     11006     10993     10991     11006     10990     10994     10995
     10990     10994     10996     10990     10994     10997     10995     10994     10996
     10995     10994     10997     10996     10994     10997     10990     10998     10999
     10990     10998     11000     10990     10998     11001     10999     10998     11000
     10999     10998     11001     11000     10998     11001     10990     11002     11003
     10990     11002     11004     10990     11002     11005     11003     11002     11004
     11003     11002     11005     11004     11002     11005     10991     11006     11007
     10991     11006     11008     10991     11006     11012     11007     11006     11008
     11007     11006     11012     11008     11006     11012     11010     11009     11011
     11010     11009     11012     11010     11009     11013     11011     11009     11012
     11011     11009     11013     11012     11009     11013     11006     11012     11009
     11009     11013     11014     11013     11014     11015     11013     11014     11016
     11013     11014     11017     11015     11014     11016     11015     11014     11017
     11016     11014     11017     11014     11017     11018     11014     11017     11019
     11014     11017     11025     11018     11017     11019     11018     11017     11025
     11019     11017     11025     11017     11019     11020     11019     11020     11021
     11019     11020     11022     11021     11020     11022     11020     11022     11023
     11020     11022     11024     11020     11022     11034     11023     11022     11024
     11023     11022     11034     11024     11022     11034     11017     11025     11026
     11017     11025     11027     11017     11025     11028     11026     11025     11027
     11026     11025     11028     11027     11025     11028     11025     11028     11029
     11028     11029     11030     11028     11029     11031     11030     11029     11031
     11029     11031     11032     11029     11031     11033     11029     11031     11081
     11032     11031     11033     11032     11031     11081     11033     11031     11081
     11022     11034     11035     11022     11034     11036     11022     11034     11037
     11035     11034     11036     11035     11034     11037     11036     11034     11037
     11034     11037     11038     11034     11037     11039     11034     11037     11040
     11038     11037     11039     11038     11037     11040     11039     11037     11040
     11037     11040     11041     11037     11040     11042     11037     11040     11043
     11041     11040     11042     11041     11040     11043     11042     11040     11043
     11040     11043     11044     11040     11043     11045     11040     11043     11046
     11044     11043     11045     11044     11043     11046     11045     11043     11046
     11043     11046     11047     11043     11046     11048     11043     11046     11049
     11047     11046     11048     11047     11046     11049     11048     11046     11049
     11046     11049     11050     11046     11049     11051     11046     11049     11052
     11050     11049     11051     11050     11049     11052     11051     11049     11052
     11049     11052     11053     11049     11052     11054     11053     11052     11054
     11052     11054     11055     11052     11054     11056     11055     11054     11056
     11054     11056     11057     11054     11056     11058     11054     11056     11059
     11057     11056     11058     11057     11056     11059     11058     11056     11059
     11056     11059     11060     11056     11059     11061     11056     11059     11062
     11060     11059     11061     11060     11059     11062     11061     11059     11062
     11059     11062     11063     11059     11062     11064     11059     11062     11065
     11063     11062     11064     11063     11062     11065     11064     11062     11065
     11062     11065     11066     11062     11065     11067     11062     11065     11068
     11066     11065     11067     11066     11065     11068     11067     11065     11068
     11065     11068     11069     11065     11068     11070     11065     11068     11071
     11069     11068     11070     11069     11068     11071     11070     11068     11071
     11068     11071     11072     11068     11071     11073     11068     11071     11074
     11072     11071     11073     11072     11071     11074     11073     11071     11074
     11071     11074     11075     11071     11074     11076     11071     11074     11077
     11075     11074     11076     11075     11074     11077     11076     11074     11077
     11074     11077     11078     11074     11077     11079     11074     11077     11080
     11078     11077     11079     11078     11077     11080     11079     11077     11080
     11031     11081     11082     11031     11081     11083     11031     11081     11084
     11082     11081     11083     11082     11081     11084     11083     11081     11084
     11081     11084     11085     11081     11084     11086     11081     11084     11087
     11085     11084     11086     11085     11084     11087     11086     11084     11087
     11084     11087     11088     11084     11087     11089     11084     11087     11090
     11088     11087     11089     11088     11087     11090     11089     11087     11090
     11087     11090     11091     11087     11090     11092     11087     11090     11093
     11091     11090     11092     11091     11090     11093     11092     11090     11093
     11090     11093     11094     11090     11093     11095     11090     11093     11096
     11094     11093     11095     11094     11093     11096     11095     11093     11096
     11093     11096     11097     11093     11096     11098     11093     11096     11099
     11097     11096     11098     11097     11096     11099     11098     11096     11099
     11096     11099     11100     11096     11099     11101     11096     11099     11102
     11100     11099     11101     11100     11099     11102     11101     11099     11102
     11099     11102     11103     11099     11102     11104     11099     11102     11105
     11103     11102     11104     11103     11102     11105     11104     11102     11105
     11102     11105     11106     11102     11105     11107     11102     11105     11108
     11106     11105     11107     11106     11105     11108     11107     11105     11108
     11105     11108     11109     11105     11108     11110     11105     11108     11111
     11109     11108     11110     11109     11108     11111     11110     11108     11111
     11108     11111     11112     11108     11111     11113     11108     11111     11114
     11112     11111     11113     11112     11111     11114     11113     11111     11114
     11111     11114     11115     11111     11114     11116     11111     11114     11117
     11115     11114     11116     11115     11114     11117     11116     11114     11117
     11114     11117     11118     11114     11117     11119     11114     11117     11120
     11118     11117     11119     11118     11117     11120     11119     11117     11120
     11117     11120     11121     11117     11120     11122     11117     11120     11123
     11121     11120     11122     11121     11120     11123     11122     11120     11123
     11125     11124     11128     11125     11124     11132     11125     11124     11136
     11128     11124     11132     11128     11124     11136     11132     11124     11136
     11124     11125     11126     11124     11125     11127     11124     11125     11140
     11126     11125     11127     11126     11125     11140     11127     11125     11140
     11124     11128     11129     11124     11128     11130     11124     11128     11131
     11129     11128     11130     11129     11128     11131     11130     11128     11131
     11124     11132     11133     11124     11132     11134     11124     11132     11135
     11133     11132     11134     11133     11132     11135     11134     11132     11135
     11124     11136     11137     11124     11136     11138     11124     11136     11139
     11137     11136     11138     11137     11136     11139     11138     11136     11139
     11125     11140     11141     11125     11140     11142     11125     11140     11146
     11141     11140     11142     11141     11140     11146     11142     11140     11146
     11144     11143     11145     11144     11143     11146     11144     11143     11147
     11145     11143     11146     11145     11143     11147     11146     11143     11147
     11140     11146     11143     11143     11147     11148     11147     11148     11149
     11147     11148     11150     11147     11148     11151     11149     11148     11150
     11149     11148     11151     11150     11148     11151     11148     11151     11152
     11148     11151     11153     11148     11151     11159     11152     11151     11153
     11152     11151     11159     11153     11151     11159     11151     11153     11154
     11153     11154     11155     11153     11154     11156     11155     11154     11156
     11154     11156     11157     11154     11156     11158     11154     11156     11168
     11157     11156     11158     11157     11156     11168     11158     11156     11168
     11151     11159     11160     11151     11159     11161     11151     11159     11162
     11160     11159     11161     11160     11159     11162     11161     11159     11162
     11159     11162     11163     11162     11163     11164     11162     11163     11165
     11164     11163     11165     11163     11165     11166     11163     11165     11167
     11163     11165     11215     11166     11165     11167     11166     11165     11215
     11167     11165     11215     11156     11168     11169     11156     11168     11170
     11156     11168     11171     11169     11168     11170     11169     11168     11171
     11170     11168     11171     11168     11171     11172     11168     11171     11173
     11168     11171     11174     11172     11171     11173     11172     11171     11174
     11173     11171     11174     11171     11174     11175     11171     11174     11176
     11171     11174     11177     11175     11174     11176     11175     11174     11177
     11176     11174     11177     11174     11177     11178     11174     11177     11179
     11174     11177     11180     11178     11177     11179     11178     11177     11180
     11179     11177     11180     11177     11180     11181     11177     11180     11182
     11177     11180     11183     11181     11180     11182     11181     11180     11183
     11182     11180     11183     11180     11183     11184     11180     11183     11185
     11180     11183     11186     11184     11183     11185     11184     11183     11186
     11185     11183     11186     11183     11186     11187     11183     11186     11188
     11187     11186     11188     11186     11188     11189     11186     11188     11190
     11189     11188     11190     11188     11190     11191     11188     11190     11192
     11188     11190     11193     11191     11190     11192     11191     11190     11193
     11192     11190     11193     11190     11193     11194     11190     11193     11195
     11190     11193     11196     11194     11193     11195     11194     11193     11196
     11195     11193     11196     11193     11196     11197     11193     11196     11198
     11193     11196     11199     11197     11196     11198     11197     11196     11199
     11198     11196     11199     11196     11199     11200     11196     11199     11201
     11196     11199     11202     11200     11199     11201     11200     11199     11202
     11201     11199     11202     11199     11202     11203     11199     11202     11204
     11199     11202     11205     11203     11202     11204     11203     11202     11205
     11204     11202     11205     11202     11205     11206     11202     11205     11207
     11202     11205     11208     11206     11205     11207     11206     11205     11208
     11207     11205     11208     11205     11208     11209     11205     11208     11210
     11205     11208     11211     11209     11208     11210     11209     11208     11211
     11210     11208     11211     11208     11211     11212     11208     11211     11213
     11208     11211     11214     11212     11211     11213     11212     11211     11214
     11213     11211     11214     11165     11215     11216     11165     11215     11217
     11165     11215     11218     11216     11215     11217     11216     11215     11218
     11217     11215     11218     11215     11218     11219     11215     11218     11220
     11215     11218     11221     11219     11218     11220     11219     11218     11221
     11220     11218     11221     11218     11221     11222     11218     11221     11223
     11218     11221     11224     11222     11221     11223     11222     11221     11224
     11223     11221     11224     11221     11224     11225     11221     11224     11226
     11221     11224     11227     11225     11224     11226     11225     11224     11227
     11226     11224     11227     11224     11227     11228     11224     11227     11229
     11224     11227     11230     11228     11227     11229     11228     11227     11230
     11229     11227     11230     11227     11230     11231     11227     11230     11232
     11227     11230     11233     11231     11230     11232     11231     11230     11233
     11232     11230     11233     11230     11233     11234     11230     11233     11235
     11230     11233     11236     11234     11233     11235     11234     11233     11236
     11235     11233     11236     11233     11236     11237     11233     11236     11238
     11233     11236     11239     11237     11236     11238     11237     11236     11239
     11238     11236     11239     11236     11239     11240     11236     11239     11241
     11236     11239     11242     11240     11239     11241     11240     11239     11242
     11241     11239     11242     11239     11242     11243     11239     11242     11244
     11239     11242     11245     11243     11242     11244     11243     11242     11245
     11244     11242     11245     11242     11245     11246     11242     11245     11247
     11242     11245     11248     11246     11245     11247     11246     11245     11248
     11247     11245     11248     11245     11248     11249     11245     11248     11250
     11245     11248     11251     11249     11248     11250     11249     11248     11251
     11250     11248     11251     11248     11251     11252     11248     11251     11253
     11248     11251     11254     11252     11251     11253     11252     11251     11254
     11253     11251     11254     11251     11254     11255     11251     11254     11256
     11251     11254     11257     11255     11254     11256     11255     11254     11257
     11256     11254     11257     11259     11258     11262     11259     11258     11266
     11259     11258     11270     11262     11258     11266     11262     11258     11270
     11266     11258     11270     11258     11259     11260     11258     11259     11261
     11258     11259     11274     11260     11259     11261     11260     11259     11274
     11261     11259     11274     11258     11262     11263     11258     11262     11264
     11258     11262     11265     11263     11262     11264     11263     11262     11265
     11264     11262     11265     11258     11266     11267     11258     11266     11268
     11258     11266     11269     11267     11266     11268     11267     11266     11269
     11268     11266     11269     11258     11270     11271     11258     11270     11272
     11258     11270     11273     11271     11270     11272     11271     11270     11273
     11272     11270     11273     11259     11274     11275     11259     11274     11276
     11259     11274     11280     11275     11274     11276     11275     11274     11280
     11276     11274     11280     11278     11277     11279     11278     11277     11280
     11278     11277     11281     11279     11277     11280     11279     11277     11281
     11280     11277     11281     11274     11280     11277     11277     11281     11282
     11281     11282     11283     11281     11282     11284     11281     11282     11285
     11283     11282     11284     11283     11282     11285     11284     11282     11285
     11282     11285     11286     11282     11285     11287     11282     11285     11293
     11286     11285     11287     11286     11285     11293     11287     11285     11293
     11285     11287     11288     11287     11288     11289     11287     11288     11290
     11289     11288     11290     11288     11290     11291     11288     11290     11292
     11288     11290     11302     11291     11290     11292     11291     11290     11302
     11292     11290     11302     11285     11293     11294     11285     11293     11295
     11285     11293     11296     11294     11293     11295     11294     11293     11296
     11295     11293     11296     11293     11296     11297     11296     11297     11298
     11296     11297     11299     11298     11297     11299     11297     11299     11300
     11297     11299     11301     11297     11299     11349     11300     11299     11301
     11300     11299     11349     11301     11299     11349     11290     11302     11303
     11290     11302     11304     11290     11302     11305     11303     11302     11304
     11303     11302     11305     11304     11302     11305     11302     11305     11306
     11302     11305     11307     11302     11305     11308     11306     11305     11307
     11306     11305     11308     11307     11305     11308     11305     11308     11309
     11305     11308     11310     11305     11308     11311     11309     11308     11310
     11309     11308     11311     11310     11308     11311     11308     11311     11312
     11308     11311     11313     11308     11311     11314     11312     11311     11313
     11312     11311     11314     11313     11311     11314     11311     11314     11315
     11311     11314     11316     11311     11314     11317     11315     11314     11316
     11315     11314     11317     11316     11314     11317     11314     11317     11318
     11314     11317     11319     11314     11317     11320     11318     11317     11319
     11318     11317     11320     11319     11317     11320     11317     11320     11321
     11317     11320     11322     11321     11320     11322     11320     11322     11323
     11320     11322     11324     11323     11322     11324     11322     11324     11325
     11322     11324     11326     11322     11324     11327     11325     11324     11326
     11325     11324     11327     11326     11324     11327     11324     11327     11328
     11324     11327     11329     11324     11327     11330     11328     11327     11329
     11328     11327     11330     11329     11327     11330     11327     11330     11331
     11327     11330     11332     11327     11330     11333     11331     11330     11332
     11331     11330     11333     11332     11330     11333     11330     11333     11334
     11330     11333     11335     11330     11333     11336     11334     11333     11335
     11334     11333     11336     11335     11333     11336     11333     11336     11337
     11333     11336     11338     11333     11336     11339     11337     11336     11338
     11337     11336     11339     11338     11336     11339     11336     11339     11340
     11336     11339     11341     11336     11339     11342     11340     11339     11341
     11340     11339     11342     11341     11339     11342     11339     11342     11343
     11339     11342     11344     11339     11342     11345     11343     11342     11344
     11343     11342     11345     11344     11342     11345     11342     11345     11346
     11342     11345     11347     11342     11345     11348     11346     11345     11347
     11346     11345     11348     11347     11345     11348     11299     11349     11350
     11299     11349     11351     11299     11349     11352     11350     11349     11351
     11350     11349     11352     11351     11349     11352     11349     11352     11353
     11349     11352     11354     11349     11352     11355     11353     11352     11354
     11353     11352     11355     11354     11352     11355     11352     11355     11356
     11352     11355     11357     11352     11355     11358     11356     11355     11357
     11356     11355     11358     11357     11355     11358     11355     11358     11359
     11355     11358     11360     11355     11358     11361     11359     11358     11360
     11359     11358     11361     11360     11358     11361     11358     11361     11362
     11358     11361     11363     11358     11361     11364     11362     11361     11363
     11362     11361     11364     11363     11361     11364     11361     11364     11365
     11361     11364     11366     11361     11364     11367     11365     11364     11366
     11365     11364     11367     11366     11364     11367     11364     11367     11368
     11364     11367     11369     11364     11367     11370     11368     11367     11369
     11368     11367     11370     11369     11367     11370     11367     11370     11371
     11367     11370     11372     11367     11370     11373     11371     11370     11372
     11371     11370     11373     11372     11370     11373     11370     11373     11374
     11370     11373     11375     11370     11373     11376     11374     11373     11375
     11374     11373     11376     11375     11373     11376     11373     11376     11377
     11373     11376     11378     11373     11376     11379     11377     11376     11378
     11377     11376     11379     11378     11376     11379     11376     11379     11380
     11376     11379     11381     11376     11379     11382     11380     11379     11381
     11380     11379     11382     11381     11379     11382     11379     11382     11383
     11379     11382     11384     11379     11382     11385     11383     11382     11384
     11383     11382     11385     11384     11382     11385     11382     11385     11386
     11382     11385     11387     11382     11385     11388     11386     11385     11387
     11386     11385     11388     11387     11385     11388     11385     11388     11389
     11385     11388     11390     11385     11388     11391     11389     11388     11390
     11389     11388     11391     11390     11388     11391     11393     11392     11396
     11393     11392     11400     11393     11392     11404     11396     11392     11400
     11396     11392     11404     11400     11392     11404     11392     11393     11394
     11392     11393     11395     11392     11393     11408     11394     11393     11395
     11394     11393     11408     11395     11393     11408     11392     11396     11397
     11392     11396     11398     11392     11396     11399     11397     11396     11398
     11397     11396     11399     11398     11396     11399     11392     11400     11401
     11392     11400     11402     11392     11400     11403     11401     11400     11402
     11401     11400     11403     11402     11400     11403     11392     11404     11405
     11392     11404     11406     11392     11404     11407     11405     11404     11406
     11405     11404     11407     11406     11404     11407     11393     11408     11409
     11393     11408     11410     11393     11408     11414     11409     11408     11410
     11409     11408     11414     11410     11408     11414     11412     11411     11413
     11412     11411     11414     11412     11411     11415     11413     11411     11414
     11413     11411     11415     11414     11411     11415     11408     11414     11411
     11411     11415     11416     11415     11416     11417     11415     11416     11418
     11415     11416     11419     11417     11416     11418     11417     11416     11419
     11418     11416     11419     11416     11419     11420     11416     11419     11421
     11416     11419     11427     11420     11419     11421     11420     11419     11427
     11421     11419     11427     11419     11421     11422     11421     11422     11423
     11421     11422     11424     11423     11422     11424     11422     11424     11425
     11422     11424     11426     11422     11424     11436     11425     11424     11426
     11425     11424     11436     11426     11424     11436     11419     11427     11428
     11419     11427     11429     11419     11427     11430     11428     11427     11429
     11428     11427     11430     11429     11427     11430     11427     11430     11431
     11430     11431     11432     11430     11431     11433     11432     11431     11433
     11431     11433     11434     11431     11433     11435     11431     11433     11483
     11434     11433     11435     11434     11433     11483     11435     11433     11483
     11424     11436     11437     11424     11436     11438     11424     11436     11439
     11437     11436     11438     11437     11436     11439     11438     11436     11439
     11436     11439     11440     11436     11439     11441     11436     11439     11442
     11440     11439     11441     11440     11439     11442     11441     11439     11442
     11439     11442     11443     11439     11442     11444     11439     11442     11445
     11443     11442     11444     11443     11442     11445     11444     11442     11445
     11442     11445     11446     11442     11445     11447     11442     11445     11448
     11446     11445     11447     11446     11445     11448     11447     11445     11448
     11445     11448     11449     11445     11448     11450     11445     11448     11451
     11449     11448     11450     11449     11448     11451     11450     11448     11451
     11448     11451     11452     11448     11451     11453     11448     11451     11454
     11452     11451     11453     11452     11451     11454     11453     11451     11454
     11451     11454     11455     11451     11454     11456     11455     11454     11456
     11454     11456     11457     11454     11456     11458     11457     11456     11458
     11456     11458     11459     11456     11458     11460     11456     11458     11461
     11459     11458     11460     11459     11458     11461     11460     11458     11461
     11458     11461     11462     11458     11461     11463     11458     11461     11464
     11462     11461     11463     11462     11461     11464     11463     11461     11464
     11461     11464     11465     11461     11464     11466     11461     11464     11467
     11465     11464     11466     11465     11464     11467     11466     11464     11467
     11464     11467     11468     11464     11467     11469     11464     11467     11470
     11468     11467     11469     11468     11467     11470     11469     11467     11470
     11467     11470     11471     11467     11470     11472     11467     11470     11473
     11471     11470     11472     11471     11470     11473     11472     11470     11473
     11470     11473     11474     11470     11473     11475     11470     11473     11476
     11474     11473     11475     11474     11473     11476     11475     11473     11476
     11473     11476     11477     11473     11476     11478     11473     11476     11479
     11477     11476     11478     11477     11476     11479     11478     11476     11479
     11476     11479     11480     11476     11479     11481     11476     11479     11482
     11480     11479     11481     11480     11479     11482     11481     11479     11482
     11433     11483     11484     11433     11483     11485     11433     11483     11486
     11484     11483     11485     11484     11483     11486     11485     11483     11486
     11483     11486     11487     11483     11486     11488     11483     11486     11489
     11487     11486     11488     11487     11486     11489     11488     11486     11489
     11486     11489     11490     11486     11489     11491     11486     11489     11492
     11490     11489     11491     11490     11489     11492     11491     11489     11492
     11489     11492     11493     11489     11492     11494     11489     11492     11495
     11493     11492     11494     11493     11492     11495     11494     11492     11495
     11492     11495     11496     11492     11495     11497     11492     11495     11498
     11496     11495     11497     11496     11495     11498     11497     11495     11498
     11495     11498     11499     11495     11498     11500     11495     11498     11501
     11499     11498     11500     11499     11498     11501     11500     11498     11501
     11498     11501     11502     11498     11501     11503     11498     11501     11504
     11502     11501     11503     11502     11501     11504     11503     11501     11504
     11501     11504     11505     11501     11504     11506     11501     11504     11507
     11505     11504     11506     11505     11504     11507     11506     11504     11507
     11504     11507     11508     11504     11507     11509     11504     11507     11510
     11508     11507     11509     11508     11507     11510     11509     11507     11510
     11507     11510     11511     11507     11510     11512     11507     11510     11513
     11511     11510     11512     11511     11510     11513     11512     11510     11513
     11510     11513     11514     11510     11513     11515     11510     11513     11516
     11514     11513     11515     11514     11513     11516     11515     11513     11516
     11513     11516     11517     11513     11516     11518     11513     11516     11519
     11517     11516     11518     11517     11516     11519     11518     11516     11519
     11516     11519     11520     11516     11519     11521     11516     11519     11522
     11520     11519     11521     11520     11519     11522     11521     11519     11522
     11519     11522     11523     11519     11522     11524     11519     11522     11525
     11523     11522     11524     11523     11522     11525     11524     11522     11525
     11527     11526     11530     11527     11526     11534     11527     11526     11538
     11530     11526     11534     11530     11526     11538     11534     11526     11538
     11526     11527     11528     11526     11527     11529     11526     11527     11542
     11528     11527     11529     11528     11527     11542     11529     11527     11542
     11526     11530     11531     11526     11530     11532     11526     11530     11533
     11531     11530     11532     11531     11530     11533     11532     11530     11533
     11526     11534     11535     11526     11534     11536     11526     11534     11537
     11535     11534     11536     11535     11534     11537     11536     11534     11537
     11526     11538     11539     11526     11538     11540     11526     11538     11541
     11539     11538     11540     11539     11538     11541     11540     11538     11541
     11527     11542     11543     11527     11542     11544     11527     11542     11548
     11543     11542     11544     11543     11542     11548     11544     11542     11548
     11546     11545     11547     11546     11545     11548     11546     11545     11549
     11547     11545     11548     11547     11545     11549     11548     11545     11549
     11542     11548     11545     11545     11549     11550     11549     11550     11551
     11549     11550     11552     11549     11550     11553     11551     11550     11552
     11551     11550     11553     11552     11550     11553     11550     11553     11554
     11550     11553     11555     11550     11553     11561     11554     11553     11555
     11554     11553     11561     11555     11553     11561     11553     11555     11556
     11555     11556     11557     11555     11556     11558     11557     11556     11558
     11556     11558     11559     11556     11558     11560     11556     11558     11570
     11559     11558     11560     11559     11558     11570     11560     11558     11570
     11553     11561     11562     11553     11561     11563     11553     11561     11564
     11562     11561     11563     11562     11561     11564     11563     11561     11564
     11561     11564     11565     11564     11565     11566     11564     11565     11567
     11566     11565     11567     11565     11567     11568     11565     11567     11569
     11565     11567     11617     11568     11567     11569     11568     11567     11617
     11569     11567     11617     11558     11570     11571     11558     11570     11572
     11558     11570     11573     11571     11570     11572     11571     11570     11573
     11572     11570     11573     11570     11573     11574     11570     11573     11575
     11570     11573     11576     11574     11573     11575     11574     11573     11576
     11575     11573     11576     11573     11576     11577     11573     11576     11578
     11573     11576     11579     11577     11576     11578     11577     11576     11579
     11578     11576     11579     11576     11579     11580     11576     11579     11581
     11576     11579     11582     11580     11579     11581     11580     11579     11582
     11581     11579     11582     11579     11582     11583     11579     11582     11584
     11579     11582     11585     11583     11582     11584     11583     11582     11585
     11584     11582     11585     11582     11585     11586     11582     11585     11587
     11582     11585     11588     11586     11585     11587     11586     11585     11588
     11587     11585     11588     11585     11588     11589     11585     11588     11590
     11589     11588     11590     11588     11590     11591     11588     11590     11592
     11591     11590     11592     11590     11592     11593     11590     11592     11594
     11590     11592     11595     11593     11592     11594     11593     11592     11595
     11594     11592     11595     11592     11595     11596     11592     11595     11597
     11592     11595     11598     11596     11595     11597     11596     11595     11598
     11597     11595     11598     11595     11598     11599     11595     11598     11600
     11595     11598     11601     11599     11598     11600     11599     11598     11601
     11600     11598     11601     11598     11601     11602     11598     11601     11603
     11598     11601     11604     11602     11601     11603     11602     11601     11604
     11603     11601     11604     11601     11604     11605     11601     11604     11606
     11601     11604     11607     11605     11604     11606     11605     11604     11607
     11606     11604     11607     11604     11607     11608     11604     11607     11609
     11604     11607     11610     11608     11607     11609     11608     11607     11610
     11609     11607     11610     11607     11610     11611     11607     11610     11612
     11607     11610     11613     11611     11610     11612     11611     11610     11613
     11612     11610     11613     11610     11613     11614     11610     11613     11615
     11610     11613     11616     11614     11613     11615     11614     11613     11616
     11615     11613     11616     11567     11617     11618     11567     11617     11619
     11567     11617     11620     11618     11617     11619     11618     11617     11620
     11619     11617     11620     11617     11620     11621     11617     11620     11622
     11617     11620     11623     11621     11620     11622     11621     11620     11623
     11622     11620     11623     11620     11623     11624     11620     11623     11625
     11620     11623     11626     11624     11623     11625     11624     11623     11626
     11625     11623     11626     11623     11626     11627     11623     11626     11628
     11623     11626     11629     11627     11626     11628     11627     11626     11629
     11628     11626     11629     11626     11629     11630     11626     11629     11631
     11626     11629     11632     11630     11629     11631     11630     11629     11632
     11631     11629     11632     11629     11632     11633     11629     11632     11634
     11629     11632     11635     11633     11632     11634     11633     11632     11635
     11634     11632     11635     11632     11635     11636     11632     11635     11637
     11632     11635     11638     11636     11635     11637     11636     11635     11638
     11637     11635     11638     11635     11638     11639     11635     11638     11640
     11635     11638     11641     11639     11638     11640     11639     11638     11641
     11640     11638     11641     11638     11641     11642     11638     11641     11643
     11638     11641     11644     11642     11641     11643     11642     11641     11644
     11643     11641     11644     11641     11644     11645     11641     11644     11646
     11641     11644     11647     11645     11644     11646     11645     11644     11647
     11646     11644     11647     11644     11647     11648     11644     11647     11649
     11644     11647     11650     11648     11647     11649     11648     11647     11650
     11649     11647     11650     11647     11650     11651     11647     11650     11652
     11647     11650     11653     11651     11650     11652     11651     11650     11653
     11652     11650     11653     11650     11653     11654     11650     11653     11655
     11650     11653     11656     11654     11653     11655     11654     11653     11656
     11655     11653     11656     11653     11656     11657     11653     11656     11658
     11653     11656     11659     11657     11656     11658     11657     11656     11659
     11658     11656     11659     11661     11660     11664     11661     11660     11668
     11661     11660     11672     11664     11660     11668     11664     11660     11672
     11668     11660     11672     11660     11661     11662     11660     11661     11663
     11660     11661     11676     11662     11661     11663     11662     11661     11676
     11663     11661     11676     11660     11664     11665     11660     11664     11666
     11660     11664     11667     11665     11664     11666     11665     11664     11667
     11666     11664     11667     11660     11668     11669     11660     11668     11670
     11660     11668     11671     11669     11668     11670     11669     11668     11671
     11670     11668     11671     11660     11672     11673     11660     11672     11674
     11660     11672     11675     11673     11672     11674     11673     11672     11675
     11674     11672     11675     11661     11676     11677     11661     11676     11678
     11661     11676     11682     11677     11676     11678     11677     11676     11682
     11678     11676     11682     11680     11679     11681     11680     11679     11682
     11680     11679     11683     11681     11679     11682     11681     11679     11683
     11682     11679     11683     11676     11682     11679     11679     11683     11684
     11683     11684     11685     11683     11684     11686     11683     11684     11687
     11685     11684     11686     11685     11684     11687     11686     11684     11687
     11684     11687     11688     11684     11687     11689     11684     11687     11695
     11688     11687     11689     11688     11687     11695     11689     11687     11695
     11687     11689     11690     11689     11690     11691     11689     11690     11692
     11691     11690     11692     11690     11692     11693     11690     11692     11694
     11690     11692     11704     11693     11692     11694     11693     11692     11704
     11694     11692     11704     11687     11695     11696     11687     11695     11697
     11687     11695     11698     11696     11695     11697     11696     11695     11698
     11697     11695     11698     11695     11698     11699     11698     11699     11700
     11698     11699     11701     11700     11699     11701     11699     11701     11702
     11699     11701     11703     11699     11701     11751     11702     11701     11703
     11702     11701     11751     11703     11701     11751     11692     11704     11705
     11692     11704     11706     11692     11704     11707     11705     11704     11706
     11705     11704     11707     11706     11704     11707     11704     11707     11708
     11704     11707     11709     11704     11707     11710     11708     11707     11709
     11708     11707     11710     11709     11707     11710     11707     11710     11711
     11707     11710     11712     11707     11710     11713     11711     11710     11712
     11711     11710     11713     11712     11710     11713     11710     11713     11714
     11710     11713     11715     11710     11713     11716     11714     11713     11715
     11714     11713     11716     11715     11713     11716     11713     11716     11717
     11713     11716     11718     11713     11716     11719     11717     11716     11718
     11717     11716     11719     11718     11716     11719     11716     11719     11720
     11716     11719     11721     11716     11719     11722     11720     11719     11721
     11720     11719     11722     11721     11719     11722     11719     11722     11723
     11719     11722     11724     11723     11722     11724     11722     11724     11725
     11722     11724     11726     11725     11724     11726     11724     11726     11727
     11724     11726     11728     11724     11726     11729     11727     11726     11728
     11727     11726     11729     11728     11726     11729     11726     11729     11730
     11726     11729     11731     11726     11729     11732     11730     11729     11731
     11730     11729     11732     11731     11729     11732     11729     11732     11733
     11729     11732     11734     11729     11732     11735     11733     11732     11734
     11733     11732     11735     11734     11732     11735     11732     11735     11736
     11732     11735     11737     11732     11735     11738     11736     11735     11737
     11736     11735     11738     11737     11735     11738     11735     11738     11739
     11735     11738     11740     11735     11738     11741     11739     11738     11740
     11739     11738     11741     11740     11738     11741     11738     11741     11742
     11738     11741     11743     11738     11741     11744     11742     11741     11743
     11742     11741     11744     11743     11741     11744     11741     11744     11745
     11741     11744     11746     11741     11744     11747     11745     11744     11746
     11745     11744     11747     11746     11744     11747     11744     11747     11748
     11744     11747     11749     11744     11747     11750     11748     11747     11749
     11748     11747     11750     11749     11747     11750     11701     11751     11752
     11701     11751     11753     11701     11751     11754     11752     11751     11753
     11752     11751     11754     11753     11751     11754     11751     11754     11755
     11751     11754     11756     11751     11754     11757     11755     11754     11756
     11755     11754     11757     11756     11754     11757     11754     11757     11758
     11754     11757     11759     11754     11757     11760     11758     11757     11759
     11758     11757     11760     11759     11757     11760     11757     11760     11761
     11757     11760     11762     11757     11760     11763     11761     11760     11762
     11761     11760     11763     11762     11760     11763     11760     11763     11764
     11760     11763     11765     11760     11763     11766     11764     11763     11765
     11764     11763     11766     11765     11763     11766     11763     11766     11767
     11763     11766     11768     11763     11766     11769     11767     11766     11768
     11767     11766     11769     11768     11766     11769     11766     11769     11770
     11766     11769     11771     11766     11769     11772     11770     11769     11771
     11770     11769     11772     11771     11769     11772     11769     11772     11773
     11769     11772     11774     11769     11772     11775     11773     11772     11774
     11773     11772     11775     11774     11772     11775     11772     11775     11776
     11772     11775     11777     11772     11775     11778     11776     11775     11777
     11776     11775     11778     11777     11775     11778     11775     11778     11779
     11775     11778     11780     11775     11778     11781     11779     11778     11780
     11779     11778     11781     11780     11778     11781     11778     11781     11782
     11778     11781     11783     11778     11781     11784     11782     11781     11783
     11782     11781     11784     11783     11781     11784     11781     11784     11785
     11781     11784     11786     11781     11784     11787     11785     11784     11786
     11785     11784     11787     11786     11784     11787     11784     11787     11788
     11784     11787     11789     11784     11787     11790     11788     11787     11789
     11788     11787     11790     11789     11787     11790     11787     11790     11791
     11787     11790     11792     11787     11790     11793     11791     11790     11792
     11791     11790     11793     11792     11790     11793     11795     11794     11798
     11795     11794     11802     11795     11794     11806     11798     11794     11802
     11798     11794     11806     11802     11794     11806     11794     11795     11796
     11794     11795     11797     11794     11795     11810     11796     11795     11797
     11796     11795     11810     11797     11795     11810     11794     11798     11799
     11794     11798     11800     11794     11798     11801     11799     11798     11800
     11799     11798     11801     11800     11798     11801     11794     11802     11803
     11794     11802     11804     11794     11802     11805     11803     11802     11804
     11803     11802     11805     11804     11802     11805     11794     11806     11807
     11794     11806     11808     11794     11806     11809     11807     11806     11808
     11807     11806     11809     11808     11806     11809     11795     11810     11811
     11795     11810     11812     11795     11810     11816     11811     11810     11812
     11811     11810     11816     11812     11810     11816     11814     11813     11815
     11814     11813     11816     11814     11813     11817     11815     11813     11816
     11815     11813     11817     11816     11813     11817     11810     11816     11813
     11813     11817     11818     11817     11818     11819     11817     11818     11820
     11817     11818     11821     11819     11818     11820     11819     11818     11821
     11820     11818     11821     11818     11821     11822     11818     11821     11823
     11818     11821     11829     11822     11821     11823     11822     11821     11829
     11823     11821     11829     11821     11823     11824     11823     11824     11825
     11823     11824     11826     11825     11824     11826     11824     11826     11827
     11824     11826     11828     11824     11826     11838     11827     11826     11828
     11827     11826     11838     11828     11826     11838     11821     11829     11830
     11821     11829     11831     11821     11829     11832     11830     11829     11831
     11830     11829     11832     11831     11829     11832     11829     11832     11833
     11832     11833     11834     11832     11833     11835     11834     11833     11835
     11833     11835     11836     11833     11835     11837     11833     11835     11885
     11836     11835     11837     11836     11835     11885     11837     11835     11885
     11826     11838     11839     11826     11838     11840     11826     11838     11841
     11839     11838     11840     11839     11838     11841     11840     11838     11841
     11838     11841     11842     11838     11841     11843     11838     11841     11844
     11842     11841     11843     11842     11841     11844     11843     11841     11844
     11841     11844     11845     11841     11844     11846     11841     11844     11847
     11845     11844     11846     11845     11844     11847     11846     11844     11847
     11844     11847     11848     11844     11847     11849     11844     11847     11850
     11848     11847     11849     11848     11847     11850     11849     11847     11850
     11847     11850     11851     11847     11850     11852     11847     11850     11853
     11851     11850     11852     11851     11850     11853     11852     11850     11853
     11850     11853     11854     11850     11853     11855     11850     11853     11856
     11854     11853     11855     11854     11853     11856     11855     11853     11856
     11853     11856     11857     11853     11856     11858     11857     11856     11858
     11856     11858     11859     11856     11858     11860     11859     11858     11860
     11858     11860     11861     11858     11860     11862     11858     11860     11863
     11861     11860     11862     11861     11860     11863     11862     11860     11863
     11860     11863     11864     11860     11863     11865     11860     11863     11866
     11864     11863     11865     11864     11863     11866     11865     11863     11866
     11863     11866     11867     11863     11866     11868     11863     11866     11869
     11867     11866     11868     11867     11866     11869     11868     11866     11869
     11866     11869     11870     11866     11869     11871     11866     11869     11872
     11870     11869     11871     11870     11869     11872     11871     11869     11872
     11869     11872     11873     11869     11872     11874     11869     11872     11875
     11873     11872     11874     11873     11872     11875     11874     11872     11875
     11872     11875     11876     11872     11875     11877     11872     11875     11878
     11876     11875     11877     11876     11875     11878     11877     11875     11878
     11875     11878     11879     11875     11878     11880     11875     11878     11881
     11879     11878     11880     11879     11878     11881     11880     11878     11881
     11878     11881     11882     11878     11881     11883     11878     11881     11884
     11882     11881     11883     11882     11881     11884     11883     11881     11884
     11835     11885     11886     11835     11885     11887     11835     11885     11888
     11886     11885     11887     11886     11885     11888     11887     11885     11888
     11885     11888     11889     11885     11888     11890     11885     11888     11891
     11889     11888     11890     11889     11888     11891     11890     11888     11891
     11888     11891     11892     11888     11891     11893     11888     11891     11894
     11892     11891     11893     11892     11891     11894     11893     11891     11894
     11891     11894     11895     11891     11894     11896     11891     11894     11897
     11895     11894     11896     11895     11894     11897     11896     11894     11897
     11894     11897     11898     11894     11897     11899     11894     11897     11900
     11898     11897     11899     11898     11897     11900     11899     11897     11900
     11897     11900     11901     11897     11900     11902     11897     11900     11903
     11901     11900     11902     11901     11900     11903     11902     11900     11903
     11900     11903     11904     11900     11903     11905     11900     11903     11906
     11904     11903     11905     11904     11903     11906     11905     11903     11906
     11903     11906     11907     11903     11906     11908     11903     11906     11909
     11907     11906     11908     11907     11906     11909     11908     11906     11909
     11906     11909     11910     11906     11909     11911     11906     11909     11912
     11910     11909     11911     11910     11909     11912     11911     11909     11912
     11909     11912     11913     11909     11912     11914     11909     11912     11915
     11913     11912     11914     11913     11912     11915     11914     11912     11915
     11912     11915     11916     11912     11915     11917     11912     11915     11918
     11916     11915     11917     11916     11915     11918     11917     11915     11918
     11915     11918     11919     11915     11918     11920     11915     11918     11921
     11919     11918     11920     11919     11918     11921     11920     11918     11921
     11918     11921     11922     11918     11921     11923     11918     11921     11924
     11922     11921     11923     11922     11921     11924     11923     11921     11924
     11921     11924     11925     11921     11924     11926     11921     11924     11927
     11925     11924     11926     11925     11924     11927     11926     11924     11927
     11929     11928     11930     11929     11928     11931     11929     11928     11932
     11930     11928     11931     11930     11928     11932     11931     11928     11932
     11928     11932     11933     11928     11932     11934     11928     11932     11937
     11933     11932     11934     11933     11932     11937     11934     11932     11937
     11932     11934     11935     11932     11934     11936     11935     11934     11936
     11932     11937     11938     11932     11937     11939     11932     11937     11943
     11938     11937     11939     11938     11937     11943     11939     11937     11943
     11941     11940     11942     11941     11940     11943     11941     11940     11944
     11942     11940     11943     11942     11940     11944     11943     11940     11944
     11937     11943     11940     11940     11944     11945     11944     11945     11946
     11944     11945     11947     11944     11945     11948     11946     11945     11947
     11946     11945     11948     11947     11945     11948     11945     11948     11949
     11945     11948     11950     11945     11948     11956     11949     11948     11950
     11949     11948     11956     11950     11948     11956     11948     11950     11951
     11950     11951     11952     11950     11951     11953     11952     11951     11953
     11951     11953     11954     11951     11953     11955     11951     11953     11965
     11954     11953     11955     11954     11953     11965     11955     11953     11965
     11948     11956     11957     11948     11956     11958     11948     11956     11959
     11957     11956     11958     11957     11956     11959     11958     11956     11959
     11956     11959     11960     11959     11960     11961     11959     11960     11962
     11961     11960     11962     11960     11962     11963     11960     11962     11964
     11960     11962     12012     11963     11962     11964     11963     11962     12012
     11964     11962     12012     11953     11965     11966     11953     11965     11967
     11953     11965     11968     11966     11965     11967     11966     11965     11968
     11967     11965     11968     11965     11968     11969     11965     11968     11970
     11965     11968     11971     11969     11968     11970     11969     11968     11971
     11970     11968     11971     11968     11971     11972     11968     11971     11973
     11968     11971     11974     11972     11971     11973     11972     11971     11974
     11973     11971     11974     11971     11974     11975     11971     11974     11976
     11971     11974     11977     11975     11974     11976     11975     11974     11977
     11976     11974     11977     11974     11977     11978     11974     11977     11979
     11974     11977     11980     11978     11977     11979     11978     11977     11980
     11979     11977     11980     11977     11980     11981     11977     11980     11982
     11977     11980     11983     11981     11980     11982     11981     11980     11983
     11982     11980     11983     11980     11983     11984     11980     11983     11985
     11984     11983     11985     11983     11985     11986     11983     11985     11987
     11986     11985     11987     11985     11987     11988     11985     11987     11989
     11985     11987     11990     11988     11987     11989     11988     11987     11990
     11989     11987     11990     11987     11990     11991     11987     11990     11992
     11987     11990     11993     11991     11990     11992     11991     11990     11993
     11992     11990     11993     11990     11993     11994     11990     11993     11995
     11990     11993     11996     11994     11993     11995     11994     11993     11996
     11995     11993     11996     11993     11996     11997     11993     11996     11998
     11993     11996     11999     11997     11996     11998     11997     11996     11999
     11998     11996     11999     11996     11999     12000     11996     11999     12001
     11996     11999     12002     12000     11999     12001     12000     11999     12002
     12001     11999     12002     11999     12002     12003     11999     12002     12004
     11999     12002     12005     12003     12002     12004     12003     12002     12005
     12004     12002     12005     12002     12005     12006     12002     12005     12007
     12002     12005     12008     12006     12005     12007     12006     12005     12008
     12007     12005     12008     12005     12008     12009     12005     12008     12010
     12005     12008     12011     12009     12008     12010     12009     12008     12011
     12010     12008     12011     11962     12012     12013     11962     12012     12014
     11962     12012     12015     12013     12012     12014     12013     12012     12015
     12014     12012     12015     12012     12015     12016     12012     12015     12017
     12012     12015     12018     12016     12015     12017     12016     12015     12018
     12017     12015     12018     12015     12018     12019     12015     12018     12020
     12015     12018     12021     12019     12018     12020     12019     12018     12021
     12020     12018     12021     12018     12021     12022     12018     12021     12023
     12018     12021     12024     12022     12021     12023     12022     12021     12024
     12023     12021     12024     12021     12024     12025     12021     12024     12026
     12021     12024     12027     12025     12024     12026     12025     12024     12027
     12026     12024     12027     12024     12027     12028     12024     12027     12029
     12024     12027     12030     12028     12027     12029     12028     12027     12030
     12029     12027     12030     12027     12030     12031     12027     12030     12032
     12027     12030     12033     12031     12030     12032     12031     12030     12033
     12032     12030     12033     12030     12033     12034     12030     12033     12035
     12030     12033     12036     12034     12033     12035     12034     12033     12036
     12035     12033     12036     12033     12036     12037     12033     12036     12038
     12033     12036     12039     12037     12036     12038     12037     12036     12039
     12038     12036     12039     12036     12039     12040     12036     12039     12041
     12036     12039     12042     12040     12039     12041     12040     12039     12042
     12041     12039     12042     12039     12042     12043     12039     12042     12044
     12039     12042     12045     12043     12042     12044     12043     12042     12045
     12044     12042     12045     12042     12045     12046     12042     12045     12047
     12042     12045     12048     12046     12045     12047     12046     12045     12048
     12047     12045     12048     12045     12048     12049     12045     12048     12050
     12045     12048     12051     12049     12048     12050     12049     12048     12051
     12050     12048     12051     12048     12051     12052     12048     12051     12053
     12048     12051     12054     12052     12051     12053     12052     12051     12054
     12053     12051     12054     12056     12055     12057     12056     12055     12058
     12056     12055     12059     12057     12055     12058     12057     12055     12059
     12058     12055     12059     12055     12059     12060     12055     12059     12061
     12055     12059     12064     12060     12059     12061     12060     12059     12064
     12061     12059     12064     12059     12061     12062     12059     12061     12063
     12062     12061     12063     12059     12064     12065     12059     12064     12066
     12059     12064     12070     12065     12064     12066     12065     12064     12070
     12066     12064     12070     12068     12067     12069     12068     12067     12070
     12068     12067     12071     12069     12067     12070     12069     12067     12071
     12070     12067     12071     12064     12070     12067     12067     12071     12072
     12071     12072     12073     12071     12072     12074     12071     12072     12075
     12073     12072     12074     12073     12072     12075     12074     12072     12075
     12072     12075     12076     12072     12075     12077     12072     12075     12083
     12076     12075     12077     12076     12075     12083     12077     12075     12083
     12075     12077     12078     12077     12078     12079     12077     12078     12080
     12079     12078     12080     12078     12080     12081     12078     12080     12082
     12078     12080     12092     12081     12080     12082     12081     12080     12092
     12082     12080     12092     12075     12083     12084     12075     12083     12085
     12075     12083     12086     12084     12083     12085     12084     12083     12086
     12085     12083     12086     12083     12086     12087     12086     12087     12088
     12086     12087     12089     12088     12087     12089     12087     12089     12090
     12087     12089     12091     12087     12089     12139     12090     12089     12091
     12090     12089     12139     12091     12089     12139     12080     12092     12093
     12080     12092     12094     12080     12092     12095     12093     12092     12094
     12093     12092     12095     12094     12092     12095     12092     12095     12096
     12092     12095     12097     12092     12095     12098     12096     12095     12097
     12096     12095     12098     12097     12095     12098     12095     12098     12099
     12095     12098     12100     12095     12098     12101     12099     12098     12100
     12099     12098     12101     12100     12098     12101     12098     12101     12102
     12098     12101     12103     12098     12101     12104     12102     12101     12103
     12102     12101     12104     12103     12101     12104     12101     12104     12105
     12101     12104     12106     12101     12104     12107     12105     12104     12106
     12105     12104     12107     12106     12104     12107     12104     12107     12108
     12104     12107     12109     12104     12107     12110     12108     12107     12109
     12108     12107     12110     12109     12107     12110     12107     12110     12111
     12107     12110     12112     12111     12110     12112     12110     12112     12113
     12110     12112     12114     12113     12112     12114     12112     12114     12115
     12112     12114     12116     12112     12114     12117     12115     12114     12116
     12115     12114     12117     12116     12114     12117     12114     12117     12118
     12114     12117     12119     12114     12117     12120     12118     12117     12119
     12118     12117     12120     12119     12117     12120     12117     12120     12121
     12117     12120     12122     12117     12120     12123     12121     12120     12122
     12121     12120     12123     12122     12120     12123     12120     12123     12124
     12120     12123     12125     12120     12123     12126     12124     12123     12125
     12124     12123     12126     12125     12123     12126     12123     12126     12127
     12123     12126     12128     12123     12126     12129     12127     12126     12128
     12127     12126     12129     12128     12126     12129     12126     12129     12130
     12126     12129     12131     12126     12129     12132     12130     12129     12131
     12130     12129     12132     12131     12129     12132     12129     12132     12133
     12129     12132     12134     12129     12132     12135     12133     12132     12134
     12133     12132     12135     12134     12132     12135     12132     12135     12136
     12132     12135     12137     12132     12135     12138     12136     12135     12137
     12136     12135     12138     12137     12135     12138     12089     12139     12140
     12089     12139     12141     12089     12139     12142     12140     12139     12141
     12140     12139     12142     12141     12139     12142     12139     12142     12143
     12139     12142     12144     12139     12142     12145     12143     12142     12144
     12143     12142     12145     12144     12142     12145     12142     12145     12146
     12142     12145     12147     12142     12145     12148     12146     12145     12147
     12146     12145     12148     12147     12145     12148     12145     12148     12149
     12145     12148     12150     12145     12148     12151     12149     12148     12150
     12149     12148     12151     12150     12148     12151     12148     12151     12152
     12148     12151     12153     12148     12151     12154     12152     12151     12153
     12152     12151     12154     12153     12151     12154     12151     12154     12155
     12151     12154     12156     12151     12154     12157     12155     12154     12156
     12155     12154     12157     12156     12154     12157     12154     12157     12158
     12154     12157     12159     12154     12157     12160     12158     12157     12159
     12158     12157     12160     12159     12157     12160     12157     12160     12161
     12157     12160     12162     12157     12160     12163     12161     12160     12162
     12161     12160     12163     12162     12160     12163     12160     12163     12164
     12160     12163     12165     12160     12163     12166     12164     12163     12165
     12164     12163     12166     12165     12163     12166     12163     12166     12167
     12163     12166     12168     12163     12166     12169     12167     12166     12168
     12167     12166     12169     12168     12166     12169     12166     12169     12170
     12166     12169     12171     12166     12169     12172     12170     12169     12171
     12170     12169     12172     12171     12169     12172     12169     12172     12173
     12169     12172     12174     12169     12172     12175     12173     12172     12174
     12173     12172     12175     12174     12172     12175     12172     12175     12176
     12172     12175     12177     12172     12175     12178     12176     12175     12177
     12176     12175     12178     12177     12175     12178     12175     12178     12179
     12175     12178     12180     12175     12178     12181     12179     12178     12180
     12179     12178     12181     12180     12178     12181     12183     12182     12186
     12183     12182     12190     12183     12182     12194     12186     12182     12190
     12186     12182     12194     12190     12182     12194     12182     12183     12184
     12182     12183     12185     12182     12183     12198     12184     12183     12185
     12184     12183     12198     12185     12183     12198     12182     12186     12187
     12182     12186     12188     12182     12186     12189     12187     12186     12188
     12187     12186     12189     12188     12186     12189     12182     12190     12191
     12182     12190     12192     12182     12190     12193     12191     12190     12192
     12191     12190     12193     12192     12190     12193     12182     12194     12195
     12182     12194     12196     12182     12194     12197     12195     12194     12196
     12195     12194     12197     12196     12194     12197     12183     12198     12199
     12183     12198     12200     12183     12198     12204     12199     12198     12200
     12199     12198     12204     12200     12198     12204     12202     12201     12203
     12202     12201     12204     12202     12201     12205     12203     12201     12204
     12203     12201     12205     12204     12201     12205     12198     12204     12201
     12201     12205     12206     12205     12206     12207     12205     12206     12208
     12205     12206     12209     12207     12206     12208     12207     12206     12209
     12208     12206     12209     12206     12209     12210     12206     12209     12211
     12206     12209     12217     12210     12209     12211     12210     12209     12217
     12211     12209     12217     12209     12211     12212     12211     12212     12213
     12211     12212     12214     12213     12212     12214     12212     12214     12215
     12212     12214     12216     12212     12214     12226     12215     12214     12216
     12215     12214     12226     12216     12214     12226     12209     12217     12218
     12209     12217     12219     12209     12217     12220     12218     12217     12219
     12218     12217     12220     12219     12217     12220     12217     12220     12221
     12220     12221     12222     12220     12221     12223     12222     12221     12223
     12221     12223     12224     12221     12223     12225     12221     12223     12273
     12224     12223     12225     12224     12223     12273     12225     12223     12273
     12214     12226     12227     12214     12226     12228     12214     12226     12229
     12227     12226     12228     12227     12226     12229     12228     12226     12229
     12226     12229     12230     12226     12229     12231     12226     12229     12232
     12230     12229     12231     12230     12229     12232     12231     12229     12232
     12229     12232     12233     12229     12232     12234     12229     12232     12235
     12233     12232     12234     12233     12232     12235     12234     12232     12235
     12232     12235     12236     12232     12235     12237     12232     12235     12238
     12236     12235     12237     12236     12235     12238     12237     12235     12238
     12235     12238     12239     12235     12238     12240     12235     12238     12241
     12239     12238     12240     12239     12238     12241     12240     12238     12241
     12238     12241     12242     12238     12241     12243     12238     12241     12244
     12242     12241     12243     12242     12241     12244     12243     12241     12244
     12241     12244     12245     12241     12244     12246     12245     12244     12246
     12244     12246     12247     12244     12246     12248     12247     12246     12248
     12246     12248     12249     12246     12248     12250     12246     12248     12251
     12249     12248     12250     12249     12248     12251     12250     12248     12251
     12248     12251     12252     12248     12251     12253     12248     12251     12254
     12252     12251     12253     12252     12251     12254     12253     12251     12254
     12251     12254     12255     12251     12254     12256     12251     12254     12257
     12255     12254     12256     12255     12254     12257     12256     12254     12257
     12254     12257     12258     12254     12257     12259     12254     12257     12260
     12258     12257     12259     12258     12257     12260     12259     12257     12260
     12257     12260     12261     12257     12260     12262     12257     12260     12263
     12261     12260     12262     12261     12260     12263     12262     12260     12263
     12260     12263     12264     12260     12263     12265     12260     12263     12266
     12264     12263     12265     12264     12263     12266     12265     12263     12266
     12263     12266     12267     12263     12266     12268     12263     12266     12269
     12267     12266     12268     12267     12266     12269     12268     12266     12269
     12266     12269     12270     12266     12269     12271     12266     12269     12272
     12270     12269     12271     12270     12269     12272     12271     12269     12272
     12223     12273     12274     12223     12273     12275     12223     12273     12276
     12274     12273     12275     12274     12273     12276     12275     12273     12276
     12273     12276     12277     12273     12276     12278     12273     12276     12279
     12277     12276     12278     12277     12276     12279     12278     12276     12279
     12276     12279     12280     12276     12279     12281     12276     12279     12282
     12280     12279     12281     12280     12279     12282     12281     12279     12282
     12279     12282     12283     12279     12282     12284     12279     12282     12285
     12283     12282     12284     12283     12282     12285     12284     12282     12285
     12282     12285     12286     12282     12285     12287     12282     12285     12288
     12286     12285     12287     12286     12285     12288     12287     12285     12288
     12285     12288     12289     12285     12288     12290     12285     12288     12291
     12289     12288     12290     12289     12288     12291     12290     12288     12291
     12288     12291     12292     12288     12291     12293     12288     12291     12294
     12292     12291     12293     12292     12291     12294     12293     12291     12294
     12291     12294     12295     12291     12294     12296     12291     12294     12297
     12295     12294     12296     12295     12294     12297     12296     12294     12297
     12294     12297     12298     12294     12297     12299     12294     12297     12300
     12298     12297     12299     12298     12297     12300     12299     12297     12300
     12297     12300     12301     12297     12300     12302     12297     12300     12303
     12301     12300     12302     12301     12300     12303     12302     12300     12303
     12300     12303     12304     12300     12303     12305     12300     12303     12306
     12304     12303     12305     12304     12303     12306     12305     12303     12306
     12303     12306     12307     12303     12306     12308     12303     12306     12309
     12307     12306     12308     12307     12306     12309     12308     12306     12309
     12306     12309     12310     12306     12309     12311     12306     12309     12312
     12310     12309     12311     12310     12309     12312     12311     12309     12312
     12309     12312     12313     12309     12312     12314     12309     12312     12315
     12313     12312     12314     12313     12312     12315     12314     12312     12315
     12317     12316     12320     12317     12316     12324     12317     12316     12328
     12320     12316     12324     12320     12316     12328     12324     12316     12328
     12316     12317     12318     12316     12317     12319     12316     12317     12332
     12318     12317     12319     12318     12317     12332     12319     12317     12332
     12316     12320     12321     12316     12320     12322     12316     12320     12323
     12321     12320     12322     12321     12320     12323     12322     12320     12323
     12316     12324     12325     12316     12324     12326     12316     12324     12327
     12325     12324     12326     12325     12324     12327     12326     12324     12327
     12316     12328     12329     12316     12328     12330     12316     12328     12331
     12329     12328     12330     12329     12328     12331     12330     12328     12331
     12317     12332     12333     12317     12332     12334     12317     12332     12338
     12333     12332     12334     12333     12332     12338     12334     12332     12338
     12336     12335     12337     12336     12335     12338     12336     12335     12339
     12337     12335     12338     12337     12335     12339     12338     12335     12339
     12332     12338     12335     12335     12339     12340     12339     12340     12341
     12339     12340     12342     12339     12340     12343     12341     12340     12342
     12341     12340     12343     12342     12340     12343     12340     12343     12344
     12340     12343     12345     12340     12343     12351     12344     12343     12345
     12344     12343     12351     12345     12343     12351     12343     12345     12346
     12345     12346     12347     12345     12346     12348     12347     12346     12348
     12346     12348     12349     12346     12348     12350     12346     12348     12360
     12349     12348     12350     12349     12348     12360     12350     12348     12360
     12343     12351     12352     12343     12351     12353     12343     12351     12354
     12352     12351     12353     12352     12351     12354     12353     12351     12354
     12351     12354     12355     12354     12355     12356     12354     12355     12357
     12356     12355     12357     12355     12357     12358     12355     12357     12359
     12355     12357     12407     12358     12357     12359     12358     12357     12407
     12359     12357     12407     12348     12360     12361     12348     12360     12362
     12348     12360     12363     12361     12360     12362     12361     12360     12363
     12362     12360     12363     12360     12363     12364     12360     12363     12365
     12360     12363     12366     12364     12363     12365     12364     12363     12366
     12365     12363     12366     12363     12366     12367     12363     12366     12368
     12363     12366     12369     12367     12366     12368     12367     12366     12369
     12368     12366     12369     12366     12369     12370     12366     12369     12371
     12366     12369     12372     12370     12369     12371     12370     12369     12372
     12371     12369     12372     12369     12372     12373     12369     12372     12374
     12369     12372     12375     12373     12372     12374     12373     12372     12375
     12374     12372     12375     12372     12375     12376     12372     12375     12377
     12372     12375     12378     12376     12375     12377     12376     12375     12378
     12377     12375     12378     12375     12378     12379     12375     12378     12380
     12379     12378     12380     12378     12380     12381     12378     12380     12382
     12381     12380     12382     12380     12382     12383     12380     12382     12384
     12380     12382     12385     12383     12382     12384     12383     12382     12385
     12384     12382     12385     12382     12385     12386     12382     12385     12387
     12382     12385     12388     12386     12385     12387     12386     12385     12388
     12387     12385     12388     12385     12388     12389     12385     12388     12390
     12385     12388     12391     12389     12388     12390     12389     12388     12391
     12390     12388     12391     12388     12391     12392     12388     12391     12393
     12388     12391     12394     12392     12391     12393     12392     12391     12394
     12393     12391     12394     12391     12394     12395     12391     12394     12396
     12391     12394     12397     12395     12394     12396     12395     12394     12397
     12396     12394     12397     12394     12397     12398     12394     12397     12399
     12394     12397     12400     12398     12397     12399     12398     12397     12400
     12399     12397     12400     12397     12400     12401     12397     12400     12402
     12397     12400     12403     12401     12400     12402     12401     12400     12403
     12402     12400     12403     12400     12403     12404     12400     12403     12405
     12400     12403     12406     12404     12403     12405     12404     12403     12406
     12405     12403     12406     12357     12407     12408     12357     12407     12409
     12357     12407     12410     12408     12407     12409     12408     12407     12410
     12409     12407     12410     12407     12410     12411     12407     12410     12412
     12407     12410     12413     12411     12410     12412     12411     12410     12413
     12412     12410     12413     12410     12413     12414     12410     12413     12415
     12410     12413     12416     12414     12413     12415     12414     12413     12416
     12415     12413     12416     12413     12416     12417     12413     12416     12418
     12413     12416     12419     12417     12416     12418     12417     12416     12419
     12418     12416     12419     12416     12419     12420     12416     12419     12421
     12416     12419     12422     12420     12419     12421     12420     12419     12422
     12421     12419     12422     12419     12422     12423     12419     12422     12424
     12419     12422     12425     12423     12422     12424     12423     12422     12425
     12424     12422     12425     12422     12425     12426     12422     12425     12427
     12422     12425     12428     12426     12425     12427     12426     12425     12428
     12427     12425     12428     12425     12428     12429     12425     12428     12430
     12425     12428     12431     12429     12428     12430     12429     12428     12431
     12430     12428     12431     12428     12431     12432     12428     12431     12433
     12428     12431     12434     12432     12431     12433     12432     12431     12434
     12433     12431     12434     12431     12434     12435     12431     12434     12436
     12431     12434     12437     12435     12434     12436     12435     12434     12437
     12436     12434     12437     12434     12437     12438     12434     12437     12439
     12434     12437     12440     12438     12437     12439     12438     12437     12440
     12439     12437     12440     12437     12440     12441     12437     12440     12442
     12437     12440     12443     12441     12440     12442     12441     12440     12443
     12442     12440     12443     12440     12443     12444     12440     12443     12445
     12440     12443     12446     12444     12443     12445     12444     12443     12446
     12445     12443     12446     12443     12446     12447     12443     12446     12448
     12443     12446     12449     12447     12446     12448     12447     12446     12449
     12448     12446     12449     12451     12450     12452     12451     12450     12453
     12451     12450     12454     12452     12450     12453     12452     12450     12454
     12453     12450     12454     12450     12454     12455     12450     12454     12456
     12450     12454     12459     12455     12454     12456     12455     12454     12459
     12456     12454     12459     12454     12456     12457     12454     12456     12458
     12457     12456     12458     12454     12459     12460     12454     12459     12461
     12454     12459     12465     12460     12459     12461     12460     12459     12465
     12461     12459     12465     12463     12462     12464     12463     12462     12465
     12463     12462     12466     12464     12462     12465     12464     12462     12466
     12465     12462     12466     12459     12465     12462     12462     12466     12467
     12466     12467     12468     12466     12467     12469     12466     12467     12470
     12468     12467     12469     12468     12467     12470     12469     12467     12470
     12467     12470     12471     12467     12470     12472     12467     12470     12478
     12471     12470     12472     12471     12470     12478     12472     12470     12478
     12470     12472     12473     12472     12473     12474     12472     12473     12475
     12474     12473     12475     12473     12475     12476     12473     12475     12477
     12473     12475     12487     12476     12475     12477     12476     12475     12487
     12477     12475     12487     12470     12478     12479     12470     12478     12480
     12470     12478     12481     12479     12478     12480     12479     12478     12481
     12480     12478     12481     12478     12481     12482     12481     12482     12483
     12481     12482     12484     12483     12482     12484     12482     12484     12485
     12482     12484     12486     12482     12484     12534     12485     12484     12486
     12485     12484     12534     12486     12484     12534     12475     12487     12488
     12475     12487     12489     12475     12487     12490     12488     12487     12489
     12488     12487     12490     12489     12487     12490     12487     12490     12491
     12487     12490     12492     12487     12490     12493     12491     12490     12492
     12491     12490     12493     12492     12490     12493     12490     12493     12494
     12490     12493     12495     12490     12493     12496     12494     12493     12495
     12494     12493     12496     12495     12493     12496     12493     12496     12497
     12493     12496     12498     12493     12496     12499     12497     12496     12498
     12497     12496     12499     12498     12496     12499     12496     12499     12500
     12496     12499     12501     12496     12499     12502     12500     12499     12501
     12500     12499     12502     12501     12499     12502     12499     12502     12503
     12499     12502     12504     12499     12502     12505     12503     12502     12504
     12503     12502     12505     12504     12502     12505     12502     12505     12506
     12502     12505     12507     12506     12505     12507     12505     12507     12508
     12505     12507     12509     12508     12507     12509     12507     12509     12510
     12507     12509     12511     12507     12509     12512     12510     12509     12511
     12510     12509     12512     12511     12509     12512     12509     12512     12513
     12509     12512     12514     12509     12512     12515     12513     12512     12514
     12513     12512     12515     12514     12512     12515     12512     12515     12516
     12512     12515     12517     12512     12515     12518     12516     12515     12517
     12516     12515     12518     12517     12515     12518     12515     12518     12519
     12515     12518     12520     12515     12518     12521     12519     12518     12520
     12519     12518     12521     12520     12518     12521     12518     12521     12522
     12518     12521     12523     12518     12521     12524     12522     12521     12523
     12522     12521     12524     12523     12521     12524     12521     12524     12525
     12521     12524     12526     12521     12524     12527     12525     12524     12526
     12525     12524     12527     12526     12524     12527     12524     12527     12528
     12524     12527     12529     12524     12527     12530     12528     12527     12529
     12528     12527     12530     12529     12527     12530     12527     12530     12531
     12527     12530     12532     12527     12530     12533     12531     12530     12532
     12531     12530     12533     12532     12530     12533     12484     12534     12535
     12484     12534     12536     12484     12534     12537     12535     12534     12536
     12535     12534     12537     12536     12534     12537     12534     12537     12538
     12534     12537     12539     12534     12537     12540     12538     12537     12539
     12538     12537     12540     12539     12537     12540     12537     12540     12541
     12537     12540     12542     12537     12540     12543     12541     12540     12542
     12541     12540     12543     12542     12540     12543     12540     12543     12544
     12540     12543     12545     12540     12543     12546     12544     12543     12545
     12544     12543     12546     12545     12543     12546     12543     12546     12547
     12543     12546     12548     12543     12546     12549     12547     12546     12548
     12547     12546     12549     12548     12546     12549     12546     12549     12550
     12546     12549     12551     12546     12549     12552     12550     12549     12551
     12550     12549     12552     12551     12549     12552     12549     12552     12553
     12549     12552     12554     12549     12552     12555     12553     12552     12554
     12553     12552     12555     12554     12552     12555     12552     12555     12556
     12552     12555     12557     12552     12555     12558     12556     12555     12557
     12556     12555     12558     12557     12555     12558     12555     12558     12559
     12555     12558     12560     12555     12558     12561     12559     12558     12560
     12559     12558     12561     12560     12558     12561     12558     12561     12562
     12558     12561     12563     12558     12561     12564     12562     12561     12563
     12562     12561     12564     12563     12561     12564     12561     12564     12565
     12561     12564     12566     12561     12564     12567     12565     12564     12566
     12565     12564     12567     12566     12564     12567     12564     12567     12568
     12564     12567     12569     12564     12567     12570     12568     12567     12569
     12568     12567     12570     12569     12567     12570     12567     12570     12571
     12567     12570     12572     12567     12570     12573     12571     12570     12572
     12571     12570     12573     12572     12570     12573     12570     12573     12574
     12570     12573     12575     12570     12573     12576     12574     12573     12575
     12574     12573     12576     12575     12573     12576     12578     12577     12581
     12578     12577     12585     12578     12577     12589     12581     12577     12585
     12581     12577     12589     12585     12577     12589     12577     12578     12579
     12577     12578     12580     12577     12578     12593     12579     12578     12580
     12579     12578     12593     12580     12578     12593     12577     12581     12582
     12577     12581     12583     12577     12581     12584     12582     12581     12583
     12582     12581     12584     12583     12581     12584     12577     12585     12586
     12577     12585     12587     12577     12585     12588     12586     12585     12587
     12586     12585     12588     12587     12585     12588     12577     12589     12590
     12577     12589     12591     12577     12589     12592     12590     12589     12591
     12590     12589     12592     12591     12589     12592     12578     12593     12594
     12578     12593     12595     12578     12593     12599     12594     12593     12595
     12594     12593     12599     12595     12593     12599     12597     12596     12598
     12597     12596     12599     12597     12596     12600     12598     12596     12599
     12598     12596     12600     12599     12596     12600     12593     12599     12596
     12596     12600     12601     12600     12601     12602     12600     12601     12603
     12600     12601     12604     12602     12601     12603     12602     12601     12604
     12603     12601     12604     12601     12604     12605     12601     12604     12606
     12601     12604     12612     12605     12604     12606     12605     12604     12612
     12606     12604     12612     12604     12606     12607     12606     12607     12608
     12606     12607     12609     12608     12607     12609     12607     12609     12610
     12607     12609     12611     12607     12609     12621     12610     12609     12611
     12610     12609     12621     12611     12609     12621     12604     12612     12613
     12604     12612     12614     12604     12612     12615     12613     12612     12614
     12613     12612     12615     12614     12612     12615     12612     12615     12616
     12615     12616     12617     12615     12616     12618     12617     12616     12618
     12616     12618     12619     12616     12618     12620     12616     12618     12668
     12619     12618     12620     12619     12618     12668     12620     12618     12668
     12609     12621     12622     12609     12621     12623     12609     12621     12624
     12622     12621     12623     12622     12621     12624     12623     12621     12624
     12621     12624     12625     12621     12624     12626     12621     12624     12627
     12625     12624     12626     12625     12624     12627     12626     12624     12627
     12624     12627     12628     12624     12627     12629     12624     12627     12630
     12628     12627     12629     12628     12627     12630     12629     12627     12630
     12627     12630     12631     12627     12630     12632     12627     12630     12633
     12631     12630     12632     12631     12630     12633     12632     12630     12633
     12630     12633     12634     12630     12633     12635     12630     12633     12636
     12634     12633     12635     12634     12633     12636     12635     12633     12636
     12633     12636     12637     12633     12636     12638     12633     12636     12639
     12637     12636     12638     12637     12636     12639     12638     12636     12639
     12636     12639     12640     12636     12639     12641     12640     12639     12641
     12639     12641     12642     12639     12641     12643     12642     12641     12643
     12641     12643     12644     12641     12643     12645     12641     12643     12646
     12644     12643     12645     12644     12643     12646     12645     12643     12646
     12643     12646     12647     12643     12646     12648     12643     12646     12649
     12647     12646     12648     12647     12646     12649     12648     12646     12649
     12646     12649     12650     12646     12649     12651     12646     12649     12652
     12650     12649     12651     12650     12649     12652     12651     12649     12652
     12649     12652     12653     12649     12652     12654     12649     12652     12655
     12653     12652     12654     12653     12652     12655     12654     12652     12655
     12652     12655     12656     12652     12655     12657     12652     12655     12658
     12656     12655     12657     12656     12655     12658     12657     12655     12658
     12655     12658     12659     12655     12658     12660     12655     12658     12661
     12659     12658     12660     12659     12658     12661     12660     12658     12661
     12658     12661     12662     12658     12661     12663     12658     12661     12664
     12662     12661     12663     12662     12661     12664     12663     12661     12664
     12661     12664     12665     12661     12664     12666     12661     12664     12667
     12665     12664     12666     12665     12664     12667     12666     12664     12667
     12618     12668     12669     12618     12668     12670     12618     12668     12671
     12669     12668     12670     12669     12668     12671     12670     12668     12671
     12668     12671     12672     12668     12671     12673     12668     12671     12674
     12672     12671     12673     12672     12671     12674     12673     12671     12674
     12671     12674     12675     12671     12674     12676     12671     12674     12677
     12675     12674     12676     12675     12674     12677     12676     12674     12677
     12674     12677     12678     12674     12677     12679     12674     12677     12680
     12678     12677     12679     12678     12677     12680     12679     12677     12680
     12677     12680     12681     12677     12680     12682     12677     12680     12683
     12681     12680     12682     12681     12680     12683     12682     12680     12683
     12680     12683     12684     12680     12683     12685     12680     12683     12686
     12684     12683     12685     12684     12683     12686     12685     12683     12686
     12683     12686     12687     12683     12686     12688     12683     12686     12689
     12687     12686     12688     12687     12686     12689     12688     12686     12689
     12686     12689     12690     12686     12689     12691     12686     12689     12692
     12690     12689     12691     12690     12689     12692     12691     12689     12692
     12689     12692     12693     12689     12692     12694     12689     12692     12695
     12693     12692     12694     12693     12692     12695     12694     12692     12695
     12692     12695     12696     12692     12695     12697     12692     12695     12698
     12696     12695     12697     12696     12695     12698     12697     12695     12698
     12695     12698     12699     12695     12698     12700     12695     12698     12701
     12699     12698     12700     12699     12698     12701     12700     12698     12701
     12698     12701     12702     12698     12701     12703     12698     12701     12704
     12702     12701     12703     12702     12701     12704     12703     12701     12704
     12701     12704     12705     12701     12704     12706     12701     12704     12707
     12705     12704     12706     12705     12704     12707     12706     12704     12707
     12704     12707     12708     12704     12707     12709     12704     12707     12710
     12708     12707     12709     12708     12707     12710     12709     12707     12710
     12712     12711     12715     12712     12711     12719     12712     12711     12723
     12715     12711     12719     12715     12711     12723     12719     12711     12723
     12711     12712     12713     12711     12712     12714     12711     12712     12727
     12713     12712     12714     12713     12712     12727     12714     12712     12727
     12711     12715     12716     12711     12715     12717     12711     12715     12718
     12716     12715     12717     12716     12715     12718     12717     12715     12718
     12711     12719     12720     12711     12719     12721     12711     12719     12722
     12720     12719     12721     12720     12719     12722     12721     12719     12722
     12711     12723     12724     12711     12723     12725     12711     12723     12726
     12724     12723     12725     12724     12723     12726     12725     12723     12726
     12712     12727     12728     12712     12727     12729     12712     12727     12733
     12728     12727     12729     12728     12727     12733     12729     12727     12733
     12731     12730     12732     12731     12730     12733     12731     12730     12734
     12732     12730     12733     12732     12730     12734     12733     12730     12734
     12727     12733     12730     12730     12734     12735     12734     12735     12736
     12734     12735     12737     12734     12735     12738     12736     12735     12737
     12736     12735     12738     12737     12735     12738     12735     12738     12739
     12735     12738     12740     12735     12738     12746     12739     12738     12740
     12739     12738     12746     12740     12738     12746     12738     12740     12741
     12740     12741     12742     12740     12741     12743     12742     12741     12743
     12741     12743     12744     12741     12743     12745     12741     12743     12755
     12744     12743     12745     12744     12743     12755     12745     12743     12755
     12738     12746     12747     12738     12746     12748     12738     12746     12749
     12747     12746     12748     12747     12746     12749     12748     12746     12749
     12746     12749     12750     12749     12750     12751     12749     12750     12752
     12751     12750     12752     12750     12752     12753     12750     12752     12754
     12750     12752     12802     12753     12752     12754     12753     12752     12802
     12754     12752     12802     12743     12755     12756     12743     12755     12757
     12743     12755     12758     12756     12755     12757     12756     12755     12758
     12757     12755     12758     12755     12758     12759     12755     12758     12760
     12755     12758     12761     12759     12758     12760     12759     12758     12761
     12760     12758     12761     12758     12761     12762     12758     12761     12763
     12758     12761     12764     12762     12761     12763     12762     12761     12764
     12763     12761     12764     12761     12764     12765     12761     12764     12766
     12761     12764     12767     12765     12764     12766     12765     12764     12767
     12766     12764     12767     12764     12767     12768     12764     12767     12769
     12764     12767     12770     12768     12767     12769     12768     12767     12770
     12769     12767     12770     12767     12770     12771     12767     12770     12772
     12767     12770     12773     12771     12770     12772     12771     12770     12773
     12772     12770     12773     12770     12773     12774     12770     12773     12775
     12774     12773     12775     12773     12775     12776     12773     12775     12777
     12776     12775     12777     12775     12777     12778     12775     12777     12779
     12775     12777     12780     12778     12777     12779     12778     12777     12780
     12779     12777     12780     12777     12780     12781     12777     12780     12782
     12777     12780     12783     12781     12780     12782     12781     12780     12783
     12782     12780     12783     12780     12783     12784     12780     12783     12785
     12780     12783     12786     12784     12783     12785     12784     12783     12786
     12785     12783     12786     12783     12786     12787     12783     12786     12788
     12783     12786     12789     12787     12786     12788     12787     12786     12789
     12788     12786     12789     12786     12789     12790     12786     12789     12791
     12786     12789     12792     12790     12789     12791     12790     12789     12792
     12791     12789     12792     12789     12792     12793     12789     12792     12794
     12789     12792     12795     12793     12792     12794     12793     12792     12795
     12794     12792     12795     12792     12795     12796     12792     12795     12797
     12792     12795     12798     12796     12795     12797     12796     12795     12798
     12797     12795     12798     12795     12798     12799     12795     12798     12800
     12795     12798     12801     12799     12798     12800     12799     12798     12801
     12800     12798     12801     12752     12802     12803     12752     12802     12804
     12752     12802     12805     12803     12802     12804     12803     12802     12805
     12804     12802     12805     12802     12805     12806     12802     12805     12807
     12802     12805     12808     12806     12805     12807     12806     12805     12808
     12807     12805     12808     12805     12808     12809     12805     12808     12810
     12805     12808     12811     12809     12808     12810     12809     12808     12811
     12810     12808     12811     12808     12811     12812     12808     12811     12813
     12808     12811     12814     12812     12811     12813     12812     12811     12814
     12813     12811     12814     12811     12814     12815     12811     12814     12816
     12811     12814     12817     12815     12814     12816     12815     12814     12817
     12816     12814     12817     12814     12817     12818     12814     12817     12819
     12814     12817     12820     12818     12817     12819     12818     12817     12820
     12819     12817     12820     12817     12820     12821     12817     12820     12822
     12817     12820     12823     12821     12820     12822     12821     12820     12823
     12822     12820     12823     12820     12823     12824     12820     12823     12825
     12820     12823     12826     12824     12823     12825     12824     12823     12826
     12825     12823     12826     12823     12826     12827     12823     12826     12828
     12823     12826     12829     12827     12826     12828     12827     12826     12829
     12828     12826     12829     12826     12829     12830     12826     12829     12831
     12826     12829     12832     12830     12829     12831     12830     12829     12832
     12831     12829     12832     12829     12832     12833     12829     12832     12834
     12829     12832     12835     12833     12832     12834     12833     12832     12835
     12834     12832     12835     12832     12835     12836     12832     12835     12837
     12832     12835     12838     12836     12835     12837     12836     12835     12838
     12837     12835     12838     12835     12838     12839     12835     12838     12840
     12835     12838     12841     12839     12838     12840     12839     12838     12841
     12840     12838     12841     12838     12841     12842     12838     12841     12843
     12838     12841     12844     12842     12841     12843     12842     12841     12844
     12843     12841     12844     12846     12845     12849     12846     12845     12853
     12846     12845     12857     12849     12845     12853     12849     12845     12857
     12853     12845     12857     12845     12846     12847     12845     12846     12848
     12845     12846     12861     12847     12846     12848     12847     12846     12861
     12848     12846     12861     12845     12849     12850     12845     12849     12851
     12845     12849     12852     12850     12849     12851     12850     12849     12852
     12851     12849     12852     12845     12853     12854     12845     12853     12855
     12845     12853     12856     12854     12853     12855     12854     12853     12856
     12855     12853     12856     12845     12857     12858     12845     12857     12859
     12845     12857     12860     12858     12857     12859     12858     12857     12860
     12859     12857     12860     12846     12861     12862     12846     12861     12863
     12846     12861     12867     12862     12861     12863     12862     12861     12867
     12863     12861     12867     12865     12864     12866     12865     12864     12867
     12865     12864     12868     12866     12864     12867     12866     12864     12868
     12867     12864     12868     12861     12867     12864     12864     12868     12869
     12868     12869     12870     12868     12869     12871     12868     12869     12872
     12870     12869     12871     12870     12869     12872     12871     12869     12872
     12869     12872     12873     12869     12872     12874     12869     12872     12880
     12873     12872     12874     12873     12872     12880     12874     12872     12880
     12872     12874     12875     12874     12875     12876     12874     12875     12877
     12876     12875     12877     12875     12877     12878     12875     12877     12879
     12875     12877     12889     12878     12877     12879     12878     12877     12889
     12879     12877     12889     12872     12880     12881     12872     12880     12882
     12872     12880     12883     12881     12880     12882     12881     12880     12883
     12882     12880     12883     12880     12883     12884     12883     12884     12885
     12883     12884     12886     12885     12884     12886     12884     12886     12887
     12884     12886     12888     12884     12886     12936     12887     12886     12888
     12887     12886     12936     12888     12886     12936     12877     12889     12890
     12877     12889     12891     12877     12889     12892     12890     12889     12891
     12890     12889     12892     12891     12889     12892     12889     12892     12893
     12889     12892     12894     12889     12892     12895     12893     12892     12894
     12893     12892     12895     12894     12892     12895     12892     12895     12896
     12892     12895     12897     12892     12895     12898     12896     12895     12897
     12896     12895     12898     12897     12895     12898     12895     12898     12899
     12895     12898     12900     12895     12898     12901     12899     12898     12900
     12899     12898     12901     12900     12898     12901     12898     12901     12902
     12898     12901     12903     12898     12901     12904     12902     12901     12903
     12902     12901     12904     12903     12901     12904     12901     12904     12905
     12901     12904     12906     12901     12904     12907     12905     12904     12906
     12905     12904     12907     12906     12904     12907     12904     12907     12908
     12904     12907     12909     12908     12907     12909     12907     12909     12910
     12907     12909     12911     12910     12909     12911     12909     12911     12912
     12909     12911     12913     12909     12911     12914     12912     12911     12913
     12912     12911     12914     12913     12911     12914     12911     12914     12915
     12911     12914     12916     12911     12914     12917     12915     12914     12916
     12915     12914     12917     12916     12914     12917     12914     12917     12918
     12914     12917     12919     12914     12917     12920     12918     12917     12919
     12918     12917     12920     12919     12917     12920     12917     12920     12921
     12917     12920     12922     12917     12920     12923     12921     12920     12922
     12921     12920     12923     12922     12920     12923     12920     12923     12924
     12920     12923     12925     12920     12923     12926     12924     12923     12925
     12924     12923     12926     12925     12923     12926     12923     12926     12927
     12923     12926     12928     12923     12926     12929     12927     12926     12928
     12927     12926     12929     12928     12926     12929     12926     12929     12930
     12926     12929     12931     12926     12929     12932     12930     12929     12931
     12930     12929     12932     12931     12929     12932     12929     12932     12933
     12929     12932     12934     12929     12932     12935     12933     12932     12934
     12933     12932     12935     12934     12932     12935     12886     12936     12937
     12886     12936     12938     12886     12936     12939     12937     12936     12938
     12937     12936     12939     12938     12936     12939     12936     12939     12940
     12936     12939     12941     12936     12939     12942     12940     12939     12941
     12940     12939     12942     12941     12939     12942     12939     12942     12943
     12939     12942     12944     12939     12942     12945     12943     12942     12944
     12943     12942     12945     12944     12942     12945     12942     12945     12946
     12942     12945     12947     12942     12945     12948     12946     12945     12947
     12946     12945     12948     12947     12945     12948     12945     12948     12949
     12945     12948     12950     12945     12948     12951     12949     12948     12950
     12949     12948     12951     12950     12948     12951     12948     12951     12952
     12948     12951     12953     12948     12951     12954     12952     12951     12953
     12952     12951     12954     12953     12951     12954     12951     12954     12955
     12951     12954     12956     12951     12954     12957     12955     12954     12956
     12955     12954     12957     12956     12954     12957     12954     12957     12958
     12954     12957     12959     12954     12957     12960     12958     12957     12959
     12958     12957     12960     12959     12957     12960     12957     12960     12961
     12957     12960     12962     12957     12960     12963     12961     12960     12962
     12961     12960     12963     12962     12960     12963     12960     12963     12964
     12960     12963     12965     12960     12963     12966     12964     12963     12965
     12964     12963     12966     12965     12963     12966     12963     12966     12967
     12963     12966     12968     12963     12966     12969     12967     12966     12968
     12967     12966     12969     12968     12966     12969     12966     12969     12970
     12966     12969     12971     12966     12969     12972     12970     12969     12971
     12970     12969     12972     12971     12969     12972     12969     12972     12973
     12969     12972     12974     12969     12972     12975     12973     12972     12974
     12973     12972     12975     12974     12972     12975     12972     12975     12976
     12972     12975     12977     12972     12975     12978     12976     12975     12977
     12976     12975     12978     12977     12975     12978     12980     12979     12983
     12980     12979     12987     12980     12979     12991     12983     12979     12987
     12983     12979     12991     12987     12979     12991     12979     12980     12981
     12979     12980     12982     12979     12980     12995     12981     12980     12982
     12981     12980     12995     12982     12980     12995     12979     12983     12984
     12979     12983     12985     12979     12983     12986     12984     12983     12985
     12984     12983     12986     12985     12983     12986     12979     12987     12988
     12979     12987     12989     12979     12987     12990     12988     12987     12989
     12988     12987     12990     12989     12987     12990     12979     12991     12992
     12979     12991     12993     12979     12991     12994     12992     12991     12993
     12992     12991     12994     12993     12991     12994     12980     12995     12996
     12980     12995     12997     12980     12995     13001     12996     12995     12997
     12996     12995     13001     12997     12995     13001     12999     12998     13000
     12999     12998     13001     12999     12998     13002     13000     12998     13001
     13000     12998     13002     13001     12998     13002     12995     13001     12998
     12998     13002     13003     13002     13003     13004     13002     13003     13005
     13002     13003     13006     13004     13003     13005     13004     13003     13006
     13005     13003     13006     13003     13006     13007     13003     13006     13008
     13003     13006     13014     13007     13006     13008     13007     13006     13014
     13008     13006     13014     13006     13008     13009     13008     13009     13010
     13008     13009     13011     13010     13009     13011     13009     13011     13012
     13009     13011     13013     13009     13011     13023     13012     13011     13013
     13012     13011     13023     13013     13011     13023     13006     13014     13015
     13006     13014     13016     13006     13014     13017     13015     13014     13016
     13015     13014     13017     13016     13014     13017     13014     13017     13018
     13017     13018     13019     13017     13018     13020     13019     13018     13020
     13018     13020     13021     13018     13020     13022     13018     13020     13070
     13021     13020     13022     13021     13020     13070     13022     13020     13070
     13011     13023     13024     13011     13023     13025     13011     13023     13026
     13024     13023     13025     13024     13023     13026     13025     13023     13026
     13023     13026     13027     13023     13026     13028     13023     13026     13029
     13027     13026     13028     13027     13026     13029     13028     13026     13029
     13026     13029     13030     13026     13029     13031     13026     13029     13032
     13030     13029     13031     13030     13029     13032     13031     13029     13032
     13029     13032     13033     13029     13032     13034     13029     13032     13035
     13033     13032     13034     13033     13032     13035     13034     13032     13035
     13032     13035     13036     13032     13035     13037     13032     13035     13038
     13036     13035     13037     13036     13035     13038     13037     13035     13038
     13035     13038     13039     13035     13038     13040     13035     13038     13041
     13039     13038     13040     13039     13038     13041     13040     13038     13041
     13038     13041     13042     13038     13041     13043     13042     13041     13043
     13041     13043     13044     13041     13043     13045     13044     13043     13045
     13043     13045     13046     13043     13045     13047     13043     13045     13048
     13046     13045     13047     13046     13045     13048     13047     13045     13048
     13045     13048     13049     13045     13048     13050     13045     13048     13051
     13049     13048     13050     13049     13048     13051     13050     13048     13051
     13048     13051     13052     13048     13051     13053     13048     13051     13054
     13052     13051     13053     13052     13051     13054     13053     13051     13054
     13051     13054     13055     13051     13054     13056     13051     13054     13057
     13055     13054     13056     13055     13054     13057     13056     13054     13057
     13054     13057     13058     13054     13057     13059     13054     13057     13060
     13058     13057     13059     13058     13057     13060     13059     13057     13060
     13057     13060     13061     13057     13060     13062     13057     13060     13063
     13061     13060     13062     13061     13060     13063     13062     13060     13063
     13060     13063     13064     13060     13063     13065     13060     13063     13066
     13064     13063     13065     13064     13063     13066     13065     13063     13066
     13063     13066     13067     13063     13066     13068     13063     13066     13069
     13067     13066     13068     13067     13066     13069     13068     13066     13069
     13020     13070     13071     13020     13070     13072     13020     13070     13073
     13071     13070     13072     13071     13070     13073     13072     13070     13073
     13070     13073     13074     13070     13073     13075     13070     13073     13076
     13074     13073     13075     13074     13073     13076     13075     13073     13076
     13073     13076     13077     13073     13076     13078     13073     13076     13079
     13077     13076     13078     13077     13076     13079     13078     13076     13079
     13076     13079     13080     13076     13079     13081     13076     13079     13082
     13080     13079     13081     13080     13079     13082     13081     13079     13082
     13079     13082     13083     13079     13082     13084     13079     13082     13085
     13083     13082     13084     13083     13082     13085     13084     13082     13085
     13082     13085     13086     13082     13085     13087     13082     13085     13088
     13086     13085     13087     13086     13085     13088     13087     13085     13088
     13085     13088     13089     13085     13088     13090     13085     13088     13091
     13089     13088     13090     13089     13088     13091     13090     13088     13091
     13088     13091     13092     13088     13091     13093     13088     13091     13094
     13092     13091     13093     13092     13091     13094     13093     13091     13094
     13091     13094     13095     13091     13094     13096     13091     13094     13097
     13095     13094     13096     13095     13094     13097     13096     13094     13097
     13094     13097     13098     13094     13097     13099     13094     13097     13100
     13098     13097     13099     13098     13097     13100     13099     13097     13100
     13097     13100     13101     13097     13100     13102     13097     13100     13103
     13101     13100     13102     13101     13100     13103     13102     13100     13103
     13100     13103     13104     13100     13103     13105     13100     13103     13106
     13104     13103     13105     13104     13103     13106     13105     13103     13106
     13103     13106     13107     13103     13106     13108     13103     13106     13109
     13107     13106     13108     13107     13106     13109     13108     13106     13109
     13106     13109     13110     13106     13109     13111     13106     13109     13112
     13110     13109     13111     13110     13109     13112     13111     13109     13112
     13114     13113     13117     13114     13113     13121     13114     13113     13125
     13117     13113     13121     13117     13113     13125     13121     13113     13125
     13113     13114     13115     13113     13114     13116     13113     13114     13129
     13115     13114     13116     13115     13114     13129     13116     13114     13129
     13113     13117     13118     13113     13117     13119     13113     13117     13120
     13118     13117     13119     13118     13117     13120     13119     13117     13120
     13113     13121     13122     13113     13121     13123     13113     13121     13124
     13122     13121     13123     13122     13121     13124     13123     13121     13124
     13113     13125     13126     13113     13125     13127     13113     13125     13128
     13126     13125     13127     13126     13125     13128     13127     13125     13128
     13114     13129     13130     13114     13129     13131     13114     13129     13135
     13130     13129     13131     13130     13129     13135     13131     13129     13135
     13133     13132     13134     13133     13132     13135     13133     13132     13136
     13134     13132     13135     13134     13132     13136     13135     13132     13136
     13129     13135     13132     13132     13136     13137     13136     13137     13138
     13136     13137     13139     13136     13137     13140     13138     13137     13139
     13138     13137     13140     13139     13137     13140     13137     13140     13141
     13137     13140     13142     13137     13140     13148     13141     13140     13142
     13141     13140     13148     13142     13140     13148     13140     13142     13143
     13142     13143     13144     13142     13143     13145     13144     13143     13145
     13143     13145     13146     13143     13145     13147     13143     13145     13157
     13146     13145     13147     13146     13145     13157     13147     13145     13157
     13140     13148     13149     13140     13148     13150     13140     13148     13151
     13149     13148     13150     13149     13148     13151     13150     13148     13151
     13148     13151     13152     13151     13152     13153     13151     13152     13154
     13153     13152     13154     13152     13154     13155     13152     13154     13156
     13152     13154     13204     13155     13154     13156     13155     13154     13204
     13156     13154     13204     13145     13157     13158     13145     13157     13159
     13145     13157     13160     13158     13157     13159     13158     13157     13160
     13159     13157     13160     13157     13160     13161     13157     13160     13162
     13157     13160     13163     13161     13160     13162     13161     13160     13163
     13162     13160     13163     13160     13163     13164     13160     13163     13165
     13160     13163     13166     13164     13163     13165     13164     13163     13166
     13165     13163     13166     13163     13166     13167     13163     13166     13168
     13163     13166     13169     13167     13166     13168     13167     13166     13169
     13168     13166     13169     13166     13169     13170     13166     13169     13171
     13166     13169     13172     13170     13169     13171     13170     13169     13172
     13171     13169     13172     13169     13172     13173     13169     13172     13174
     13169     13172     13175     13173     13172     13174     13173     13172     13175
     13174     13172     13175     13172     13175     13176     13172     13175     13177
     13176     13175     13177     13175     13177     13178     13175     13177     13179
     13178     13177     13179     13177     13179     13180     13177     13179     13181
     13177     13179     13182     13180     13179     13181     13180     13179     13182
     13181     13179     13182     13179     13182     13183     13179     13182     13184
     13179     13182     13185     13183     13182     13184     13183     13182     13185
     13184     13182     13185     13182     13185     13186     13182     13185     13187
     13182     13185     13188     13186     13185     13187     13186     13185     13188
     13187     13185     13188     13185     13188     13189     13185     13188     13190
     13185     13188     13191     13189     13188     13190     13189     13188     13191
     13190     13188     13191     13188     13191     13192     13188     13191     13193
     13188     13191     13194     13192     13191     13193     13192     13191     13194
     13193     13191     13194     13191     13194     13195     13191     13194     13196
     13191     13194     13197     13195     13194     13196     13195     13194     13197
     13196     13194     13197     13194     13197     13198     13194     13197     13199
     13194     13197     13200     13198     13197     13199     13198     13197     13200
     13199     13197     13200     13197     13200     13201     13197     13200     13202
     13197     13200     13203     13201     13200     13202     13201     13200     13203
     13202     13200     13203     13154     13204     13205     13154     13204     13206
     13154     13204     13207     13205     13204     13206     13205     13204     13207
     13206     13204     13207     13204     13207     13208     13204     13207     13209
     13204     13207     13210     13208     13207     13209     13208     13207     13210
     13209     13207     13210     13207     13210     13211     13207     13210     13212
     13207     13210     13213     13211     13210     13212     13211     13210     13213
     13212     13210     13213     13210     13213     13214     13210     13213     13215
     13210     13213     13216     13214     13213     13215     13214     13213     13216
     13215     13213     13216     13213     13216     13217     13213     13216     13218
     13213     13216     13219     13217     13216     13218     13217     13216     13219
     13218     13216     13219     13216     13219     13220     13216     13219     13221
     13216     13219     13222     13220     13219     13221     13220     13219     13222
     13221     13219     13222     13219     13222     13223     13219     13222     13224
     13219     13222     13225     13223     13222     13224     13223     13222     13225
     13224     13222     13225     13222     13225     13226     13222     13225     13227
     13222     13225     13228     13226     13225     13227     13226     13225     13228
     13227     13225     13228     13225     13228     13229     13225     13228     13230
     13225     13228     13231     13229     13228     13230     13229     13228     13231
     13230     13228     13231     13228     13231     13232     13228     13231     13233
     13228     13231     13234     13232     13231     13233     13232     13231     13234
     13233     13231     13234     13231     13234     13235     13231     13234     13236
     13231     13234     13237     13235     13234     13236     13235     13234     13237
     13236     13234     13237     13234     13237     13238     13234     13237     13239
     13234     13237     13240     13238     13237     13239     13238     13237     13240
     13239     13237     13240     13237     13240     13241     13237     13240     13242
     13237     13240     13243     13241     13240     13242     13241     13240     13243
     13242     13240     13243     13240     13243     13244     13240     13243     13245
     13240     13243     13246     13244     13243     13245     13244     13243     13246
     13245     13243     13246     13248     13247     13251     13248     13247     13255
     13248     13247     13259     13251     13247     13255     13251     13247     13259
     13255     13247     13259     13247     13248     13249     13247     13248     13250
     13247     13248     13263     13249     13248     13250     13249     13248     13263
     13250     13248     13263     13247     13251     13252     13247     13251     13253
     13247     13251     13254     13252     13251     13253     13252     13251     13254
     13253     13251     13254     13247     13255     13256     13247     13255     13257
     13247     13255     13258     13256     13255     13257     13256     13255     13258
     13257     13255     13258     13247     13259     13260     13247     13259     13261
     13247     13259     13262     13260     13259     13261     13260     13259     13262
     13261     13259     13262     13248     13263     13264     13248     13263     13265
     13248     13263     13269     13264     13263     13265     13264     13263     13269
     13265     13263     13269     13267     13266     13268     13267     13266     13269
     13267     13266     13270     13268     13266     13269     13268     13266     13270
     13269     13266     13270     13263     13269     13266     13266     13270     13271
     13270     13271     13272     13270     13271     13273     13270     13271     13274
     13272     13271     13273     13272     13271     13274     13273     13271     13274
     13271     13274     13275     13271     13274     13276     13271     13274     13282
     13275     13274     13276     13275     13274     13282     13276     13274     13282
     13274     13276     13277     13276     13277     13278     13276     13277     13279
     13278     13277     13279     13277     13279     13280     13277     13279     13281
     13277     13279     13291     13280     13279     13281     13280     13279     13291
     13281     13279     13291     13274     13282     13283     13274     13282     13284
     13274     13282     13285     13283     13282     13284     13283     13282     13285
     13284     13282     13285     13282     13285     13286     13285     13286     13287
     13285     13286     13288     13287     13286     13288     13286     13288     13289
     13286     13288     13290     13286     13288     13338     13289     13288     13290
     13289     13288     13338     13290     13288     13338     13279     13291     13292
     13279     13291     13293     13279     13291     13294     13292     13291     13293
     13292     13291     13294     13293     13291     13294     13291     13294     13295
     13291     13294     13296     13291     13294     13297     13295     13294     13296
     13295     13294     13297     13296     13294     13297     13294     13297     13298
     13294     13297     13299     13294     13297     13300     13298     13297     13299
     13298     13297     13300     13299     13297     13300     13297     13300     13301
     13297     13300     13302     13297     13300     13303     13301     13300     13302
     13301     13300     13303     13302     13300     13303     13300     13303     13304
     13300     13303     13305     13300     13303     13306     13304     13303     13305
     13304     13303     13306     13305     13303     13306     13303     13306     13307
     13303     13306     13308     13303     13306     13309     13307     13306     13308
     13307     13306     13309     13308     13306     13309     13306     13309     13310
     13306     13309     13311     13310     13309     13311     13309     13311     13312
     13309     13311     13313     13312     13311     13313     13311     13313     13314
     13311     13313     13315     13311     13313     13316     13314     13313     13315
     13314     13313     13316     13315     13313     13316     13313     13316     13317
     13313     13316     13318     13313     13316     13319     13317     13316     13318
     13317     13316     13319     13318     13316     13319     13316     13319     13320
     13316     13319     13321     13316     13319     13322     13320     13319     13321
     13320     13319     13322     13321     13319     13322     13319     13322     13323
     13319     13322     13324     13319     13322     13325     13323     13322     13324
     13323     13322     13325     13324     13322     13325     13322     13325     13326
     13322     13325     13327     13322     13325     13328     13326     13325     13327
     13326     13325     13328     13327     13325     13328     13325     13328     13329
     13325     13328     13330     13325     13328     13331     13329     13328     13330
     13329     13328     13331     13330     13328     13331     13328     13331     13332
     13328     13331     13333     13328     13331     13334     13332     13331     13333
     13332     13331     13334     13333     13331     13334     13331     13334     13335
     13331     13334     13336     13331     13334     13337     13335     13334     13336
     13335     13334     13337     13336     13334     13337     13288     13338     13339
     13288     13338     13340     13288     13338     13341     13339     13338     13340
     13339     13338     13341     13340     13338     13341     13338     13341     13342
     13338     13341     13343     13338     13341     13344     13342     13341     13343
     13342     13341     13344     13343     13341     13344     13341     13344     13345
     13341     13344     13346     13341     13344     13347     13345     13344     13346
     13345     13344     13347     13346     13344     13347     13344     13347     13348
     13344     13347     13349     13344     13347     13350     13348     13347     13349
     13348     13347     13350     13349     13347     13350     13347     13350     13351
     13347     13350     13352     13347     13350     13353     13351     13350     13352
     13351     13350     13353     13352     13350     13353     13350     13353     13354
     13350     13353     13355     13350     13353     13356     13354     13353     13355
     13354     13353     13356     13355     13353     13356     13353     13356     13357
     13353     13356     13358     13353     13356     13359     13357     13356     13358
     13357     13356     13359     13358     13356     13359     13356     13359     13360
     13356     13359     13361     13356     13359     13362     13360     13359     13361
     13360     13359     13362     13361     13359     13362     13359     13362     13363
     13359     13362     13364     13359     13362     13365     13363     13362     13364
     13363     13362     13365     13364     13362     13365     13362     13365     13366
     13362     13365     13367     13362     13365     13368     13366     13365     13367
     13366     13365     13368     13367     13365     13368     13365     13368     13369
     13365     13368     13370     13365     13368     13371     13369     13368     13370
     13369     13368     13371     13370     13368     13371     13368     13371     13372
     13368     13371     13373     13368     13371     13374     13372     13371     13373
     13372     13371     13374     13373     13371     13374     13371     13374     13375
     13371     13374     13376     13371     13374     13377     13375     13374     13376
     13375     13374     13377     13376     13374     13377     13374     13377     13378
     13374     13377     13379     13374     13377     13380     13378     13377     13379
     13378     13377     13380     13379     13377     13380     13382     13381     13385
     13382     13381     13389     13382     13381     13393     13385     13381     13389
     13385     13381     13393     13389     13381     13393     13381     13382     13383
     13381     13382     13384     13381     13382     13397     13383     13382     13384
     13383     13382     13397     13384     13382     13397     13381     13385     13386
     13381     13385     13387     13381     13385     13388     13386     13385     13387
     13386     13385     13388     13387     13385     13388     13381     13389     13390
     13381     13389     13391     13381     13389     13392     13390     13389     13391
     13390     13389     13392     13391     13389     13392     13381     13393     13394
     13381     13393     13395     13381     13393     13396     13394     13393     13395
     13394     13393     13396     13395     13393     13396     13382     13397     13398
     13382     13397     13399     13382     13397     13403     13398     13397     13399
     13398     13397     13403     13399     13397     13403     13401     13400     13402
     13401     13400     13403     13401     13400     13404     13402     13400     13403
     13402     13400     13404     13403     13400     13404     13397     13403     13400
     13400     13404     13405     13404     13405     13406     13404     13405     13407
     13404     13405     13408     13406     13405     13407     13406     13405     13408
     13407     13405     13408     13405     13408     13409     13405     13408     13410
     13405     13408     13416     13409     13408     13410     13409     13408     13416
     13410     13408     13416     13408     13410     13411     13410     13411     13412
     13410     13411     13413     13412     13411     13413     13411     13413     13414
     13411     13413     13415     13411     13413     13425     13414     13413     13415
     13414     13413     13425     13415     13413     13425     13408     13416     13417
     13408     13416     13418     13408     13416     13419     13417     13416     13418
     13417     13416     13419     13418     13416     13419     13416     13419     13420
     13419     13420     13421     13419     13420     13422     13421     13420     13422
     13420     13422     13423     13420     13422     13424     13420     13422     13472
     13423     13422     13424     13423     13422     13472     13424     13422     13472
     13413     13425     13426     13413     13425     13427     13413     13425     13428
     13426     13425     13427     13426     13425     13428     13427     13425     13428
     13425     13428     13429     13425     13428     13430     13425     13428     13431
     13429     13428     13430     13429     13428     13431     13430     13428     13431
     13428     13431     13432     13428     13431     13433     13428     13431     13434
     13432     13431     13433     13432     13431     13434     13433     13431     13434
     13431     13434     13435     13431     13434     13436     13431     13434     13437
     13435     13434     13436     13435     13434     13437     13436     13434     13437
     13434     13437     13438     13434     13437     13439     13434     13437     13440
     13438     13437     13439     13438     13437     13440     13439     13437     13440
     13437     13440     13441     13437     13440     13442     13437     13440     13443
     13441     13440     13442     13441     13440     13443     13442     13440     13443
     13440     13443     13444     13440     13443     13445     13444     13443     13445
     13443     13445     13446     13443     13445     13447     13446     13445     13447
     13445     13447     13448     13445     13447     13449     13445     13447     13450
     13448     13447     13449     13448     13447     13450     13449     13447     13450
     13447     13450     13451     13447     13450     13452     13447     13450     13453
     13451     13450     13452     13451     13450     13453     13452     13450     13453
     13450     13453     13454     13450     13453     13455     13450     13453     13456
     13454     13453     13455     13454     13453     13456     13455     13453     13456
     13453     13456     13457     13453     13456     13458     13453     13456     13459
     13457     13456     13458     13457     13456     13459     13458     13456     13459
     13456     13459     13460     13456     13459     13461     13456     13459     13462
     13460     13459     13461     13460     13459     13462     13461     13459     13462
     13459     13462     13463     13459     13462     13464     13459     13462     13465
     13463     13462     13464     13463     13462     13465     13464     13462     13465
     13462     13465     13466     13462     13465     13467     13462     13465     13468
     13466     13465     13467     13466     13465     13468     13467     13465     13468
     13465     13468     13469     13465     13468     13470     13465     13468     13471
     13469     13468     13470     13469     13468     13471     13470     13468     13471
     13422     13472     13473     13422     13472     13474     13422     13472     13475
     13473     13472     13474     13473     13472     13475     13474     13472     13475
     13472     13475     13476     13472     13475     13477     13472     13475     13478
     13476     13475     13477     13476     13475     13478     13477     13475     13478
     13475     13478     13479     13475     13478     13480     13475     13478     13481
     13479     13478     13480     13479     13478     13481     13480     13478     13481
     13478     13481     13482     13478     13481     13483     13478     13481     13484
     13482     13481     13483     13482     13481     13484     13483     13481     13484
     13481     13484     13485     13481     13484     13486     13481     13484     13487
     13485     13484     13486     13485     13484     13487     13486     13484     13487
     13484     13487     13488     13484     13487     13489     13484     13487     13490
     13488     13487     13489     13488     13487     13490     13489     13487     13490
     13487     13490     13491     13487     13490     13492     13487     13490     13493
     13491     13490     13492     13491     13490     13493     13492     13490     13493
     13490     13493     13494     13490     13493     13495     13490     13493     13496
     13494     13493     13495     13494     13493     13496     13495     13493     13496
     13493     13496     13497     13493     13496     13498     13493     13496     13499
     13497     13496     13498     13497     13496     13499     13498     13496     13499
     13496     13499     13500     13496     13499     13501     13496     13499     13502
     13500     13499     13501     13500     13499     13502     13501     13499     13502
     13499     13502     13503     13499     13502     13504     13499     13502     13505
     13503     13502     13504     13503     13502     13505     13504     13502     13505
     13502     13505     13506     13502     13505     13507     13502     13505     13508
     13506     13505     13507     13506     13505     13508     13507     13505     13508
     13505     13508     13509     13505     13508     13510     13505     13508     13511
     13509     13508     13510     13509     13508     13511     13510     13508     13511
     13508     13511     13512     13508     13511     13513     13508     13511     13514
     13512     13511     13513     13512     13511     13514     13513     13511     13514
     13516     13515     13519     13516     13515     13523     13516     13515     13527
     13519     13515     13523     13519     13515     13527     13523     13515     13527
     13515     13516     13517     13515     13516     13518     13515     13516     13531
     13517     13516     13518     13517     13516     13531     13518     13516     13531
     13515     13519     13520     13515     13519     13521     13515     13519     13522
     13520     13519     13521     13520     13519     13522     13521     13519     13522
     13515     13523     13524     13515     13523     13525     13515     13523     13526
     13524     13523     13525     13524     13523     13526     13525     13523     13526
     13515     13527     13528     13515     13527     13529     13515     13527     13530
     13528     13527     13529     13528     13527     13530     13529     13527     13530
     13516     13531     13532     13516     13531     13533     13516     13531     13537
     13532     13531     13533     13532     13531     13537     13533     13531     13537
     13535     13534     13536     13535     13534     13537     13535     13534     13538
     13536     13534     13537     13536     13534     13538     13537     13534     13538
     13531     13537     13534     13534     13538     13539     13538     13539     13540
     13538     13539     13541     13538     13539     13542     13540     13539     13541
     13540     13539     13542     13541     13539     13542     13539     13542     13543
     13539     13542     13544     13539     13542     13550     13543     13542     13544
     13543     13542     13550     13544     13542     13550     13542     13544     13545
     13544     13545     13546     13544     13545     13547     13546     13545     13547
     13545     13547     13548     13545     13547     13549     13545     13547     13559
     13548     13547     13549     13548     13547     13559     13549     13547     13559
     13542     13550     13551     13542     13550     13552     13542     13550     13553
     13551     13550     13552     13551     13550     13553     13552     13550     13553
     13550     13553     13554     13553     13554     13555     13553     13554     13556
     13555     13554     13556     13554     13556     13557     13554     13556     13558
     13554     13556     13606     13557     13556     13558     13557     13556     13606
     13558     13556     13606     13547     13559     13560     13547     13559     13561
     13547     13559     13562     13560     13559     13561     13560     13559     13562
     13561     13559     13562     13559     13562     13563     13559     13562     13564
     13559     13562     13565     13563     13562     13564     13563     13562     13565
     13564     13562     13565     13562     13565     13566     13562     13565     13567
     13562     13565     13568     13566     13565     13567     13566     13565     13568
     13567     13565     13568     13565     13568     13569     13565     13568     13570
     13565     13568     13571     13569     13568     13570     13569     13568     13571
     13570     13568     13571     13568     13571     13572     13568     13571     13573
     13568     13571     13574     13572     13571     13573     13572     13571     13574
     13573     13571     13574     13571     13574     13575     13571     13574     13576
     13571     13574     13577     13575     13574     13576     13575     13574     13577
     13576     13574     13577     13574     13577     13578     13574     13577     13579
     13578     13577     13579     13577     13579     13580     13577     13579     13581
     13580     13579     13581     13579     13581     13582     13579     13581     13583
     13579     13581     13584     13582     13581     13583     13582     13581     13584
     13583     13581     13584     13581     13584     13585     13581     13584     13586
     13581     13584     13587     13585     13584     13586     13585     13584     13587
     13586     13584     13587     13584     13587     13588     13584     13587     13589
     13584     13587     13590     13588     13587     13589     13588     13587     13590
     13589     13587     13590     13587     13590     13591     13587     13590     13592
     13587     13590     13593     13591     13590     13592     13591     13590     13593
     13592     13590     13593     13590     13593     13594     13590     13593     13595
     13590     13593     13596     13594     13593     13595     13594     13593     13596
     13595     13593     13596     13593     13596     13597     13593     13596     13598
     13593     13596     13599     13597     13596     13598     13597     13596     13599
     13598     13596     13599     13596     13599     13600     13596     13599     13601
     13596     13599     13602     13600     13599     13601     13600     13599     13602
     13601     13599     13602     13599     13602     13603     13599     13602     13604
     13599     13602     13605     13603     13602     13604     13603     13602     13605
     13604     13602     13605     13556     13606     13607     13556     13606     13608
     13556     13606     13609     13607     13606     13608     13607     13606     13609
     13608     13606     13609     13606     13609     13610     13606     13609     13611
     13606     13609     13612     13610     13609     13611     13610     13609     13612
     13611     13609     13612     13609     13612     13613     13609     13612     13614
     13609     13612     13615     13613     13612     13614     13613     13612     13615
     13614     13612     13615     13612     13615     13616     13612     13615     13617
     13612     13615     13618     13616     13615     13617     13616     13615     13618
     13617     13615     13618     13615     13618     13619     13615     13618     13620
     13615     13618     13621     13619     13618     13620     13619     13618     13621
     13620     13618     13621     13618     13621     13622     13618     13621     13623
     13618     13621     13624     13622     13621     13623     13622     13621     13624
     13623     13621     13624     13621     13624     13625     13621     13624     13626
     13621     13624     13627     13625     13624     13626     13625     13624     13627
     13626     13624     13627     13624     13627     13628     13624     13627     13629
     13624     13627     13630     13628     13627     13629     13628     13627     13630
     13629     13627     13630     13627     13630     13631     13627     13630     13632
     13627     13630     13633     13631     13630     13632     13631     13630     13633
     13632     13630     13633     13630     13633     13634     13630     13633     13635
     13630     13633     13636     13634     13633     13635     13634     13633     13636
     13635     13633     13636     13633     13636     13637     13633     13636     13638
     13633     13636     13639     13637     13636     13638     13637     13636     13639
     13638     13636     13639     13636     13639     13640     13636     13639     13641
     13636     13639     13642     13640     13639     13641     13640     13639     13642
     13641     13639     13642     13639     13642     13643     13639     13642     13644
     13639     13642     13645     13643     13642     13644     13643     13642     13645
     13644     13642     13645     13642     13645     13646     13642     13645     13647
     13642     13645     13648     13646     13645     13647     13646     13645     13648
     13647     13645     13648     13650     13649     13653     13650     13649     13657
     13650     13649     13661     13653     13649     13657     13653     13649     13661
     13657     13649     13661     13649     13650     13651     13649     13650     13652
     13649     13650     13665     13651     13650     13652     13651     13650     13665
     13652     13650     13665     13649     13653     13654     13649     13653     13655
     13649     13653     13656     13654     13653     13655     13654     13653     13656
     13655     13653     13656     13649     13657     13658     13649     13657     13659
     13649     13657     13660     13658     13657     13659     13658     13657     13660
     13659     13657     13660     13649     13661     13662     13649     13661     13663
     13649     13661     13664     13662     13661     13663     13662     13661     13664
     13663     13661     13664     13650     13665     13666     13650     13665     13667
     13650     13665     13671     13666     13665     13667     13666     13665     13671
     13667     13665     13671     13669     13668     13670     13669     13668     13671
     13669     13668     13672     13670     13668     13671     13670     13668     13672
     13671     13668     13672     13665     13671     13668     13668     13672     13673
     13672     13673     13674     13672     13673     13675     13672     13673     13676
     13674     13673     13675     13674     13673     13676     13675     13673     13676
     13673     13676     13677     13673     13676     13678     13673     13676     13684
     13677     13676     13678     13677     13676     13684     13678     13676     13684
     13676     13678     13679     13678     13679     13680     13678     13679     13681
     13680     13679     13681     13679     13681     13682     13679     13681     13683
     13679     13681     13693     13682     13681     13683     13682     13681     13693
     13683     13681     13693     13676     13684     13685     13676     13684     13686
     13676     13684     13687     13685     13684     13686     13685     13684     13687
     13686     13684     13687     13684     13687     13688     13687     13688     13689
     13687     13688     13690     13689     13688     13690     13688     13690     13691
     13688     13690     13692     13688     13690     13740     13691     13690     13692
     13691     13690     13740     13692     13690     13740     13681     13693     13694
     13681     13693     13695     13681     13693     13696     13694     13693     13695
     13694     13693     13696     13695     13693     13696     13693     13696     13697
     13693     13696     13698     13693     13696     13699     13697     13696     13698
     13697     13696     13699     13698     13696     13699     13696     13699     13700
     13696     13699     13701     13696     13699     13702     13700     13699     13701
     13700     13699     13702     13701     13699     13702     13699     13702     13703
     13699     13702     13704     13699     13702     13705     13703     13702     13704
     13703     13702     13705     13704     13702     13705     13702     13705     13706
     13702     13705     13707     13702     13705     13708     13706     13705     13707
     13706     13705     13708     13707     13705     13708     13705     13708     13709
     13705     13708     13710     13705     13708     13711     13709     13708     13710
     13709     13708     13711     13710     13708     13711     13708     13711     13712
     13708     13711     13713     13712     13711     13713     13711     13713     13714
     13711     13713     13715     13714     13713     13715     13713     13715     13716
     13713     13715     13717     13713     13715     13718     13716     13715     13717
     13716     13715     13718     13717     13715     13718     13715     13718     13719
     13715     13718     13720     13715     13718     13721     13719     13718     13720
     13719     13718     13721     13720     13718     13721     13718     13721     13722
     13718     13721     13723     13718     13721     13724     13722     13721     13723
     13722     13721     13724     13723     13721     13724     13721     13724     13725
     13721     13724     13726     13721     13724     13727     13725     13724     13726
     13725     13724     13727     13726     13724     13727     13724     13727     13728
     13724     13727     13729     13724     13727     13730     13728     13727     13729
     13728     13727     13730     13729     13727     13730     13727     13730     13731
     13727     13730     13732     13727     13730     13733     13731     13730     13732
     13731     13730     13733     13732     13730     13733     13730     13733     13734
     13730     13733     13735     13730     13733     13736     13734     13733     13735
     13734     13733     13736     13735     13733     13736     13733     13736     13737
     13733     13736     13738     13733     13736     13739     13737     13736     13738
     13737     13736     13739     13738     13736     13739     13690     13740     13741
     13690     13740     13742     13690     13740     13743     13741     13740     13742
     13741     13740     13743     13742     13740     13743     13740     13743     13744
     13740     13743     13745     13740     13743     13746     13744     13743     13745
     13744     13743     13746     13745     13743     13746     13743     13746     13747
     13743     13746     13748     13743     13746     13749     13747     13746     13748
     13747     13746     13749     13748     13746     13749     13746     13749     13750
     13746     13749     13751     13746     13749     13752     13750     13749     13751
     13750     13749     13752     13751     13749     13752     13749     13752     13753
     13749     13752     13754     13749     13752     13755     13753     13752     13754
     13753     13752     13755     13754     13752     13755     13752     13755     13756
     13752     13755     13757     13752     13755     13758     13756     13755     13757
     13756     13755     13758     13757     13755     13758     13755     13758     13759
     13755     13758     13760     13755     13758     13761     13759     13758     13760
     13759     13758     13761     13760     13758     13761     13758     13761     13762
     13758     13761     13763     13758     13761     13764     13762     13761     13763
     13762     13761     13764     13763     13761     13764     13761     13764     13765
     13761     13764     13766     13761     13764     13767     13765     13764     13766
     13765     13764     13767     13766     13764     13767     13764     13767     13768
     13764     13767     13769     13764     13767     13770     13768     13767     13769
     13768     13767     13770     13769     13767     13770     13767     13770     13771
     13767     13770     13772     13767     13770     13773     13771     13770     13772
     13771     13770     13773     13772     13770     13773     13770     13773     13774
     13770     13773     13775     13770     13773     13776     13774     13773     13775
     13774     13773     13776     13775     13773     13776     13773     13776     13777
     13773     13776     13778     13773     13776     13779     13777     13776     13778
     13777     13776     13779     13778     13776     13779     13776     13779     13780
     13776     13779     13781     13776     13779     13782     13780     13779     13781
     13780     13779     13782     13781     13779     13782     13784     13783     13787
     13784     13783     13791     13784     13783     13795     13787     13783     13791
     13787     13783     13795     13791     13783     13795     13783     13784     13785
     13783     13784     13786     13783     13784     13799     13785     13784     13786
     13785     13784     13799     13786     13784     13799     13783     13787     13788
     13783     13787     13789     13783     13787     13790     13788     13787     13789
     13788     13787     13790     13789     13787     13790     13783     13791     13792
     13783     13791     13793     13783     13791     13794     13792     13791     13793
     13792     13791     13794     13793     13791     13794     13783     13795     13796
     13783     13795     13797     13783     13795     13798     13796     13795     13797
     13796     13795     13798     13797     13795     13798     13784     13799     13800
     13784     13799     13801     13784     13799     13805     13800     13799     13801
     13800     13799     13805     13801     13799     13805     13803     13802     13804
     13803     13802     13805     13803     13802     13806     13804     13802     13805
     13804     13802     13806     13805     13802     13806     13799     13805     13802
     13802     13806     13807     13806     13807     13808     13806     13807     13809
     13806     13807     13810     13808     13807     13809     13808     13807     13810
     13809     13807     13810     13807     13810     13811     13807     13810     13812
     13807     13810     13818     13811     13810     13812     13811     13810     13818
     13812     13810     13818     13810     13812     13813     13812     13813     13814
     13812     13813     13815     13814     13813     13815     13813     13815     13816
     13813     13815     13817     13813     13815     13827     13816     13815     13817
     13816     13815     13827     13817     13815     13827     13810     13818     13819
     13810     13818     13820     13810     13818     13821     13819     13818     13820
     13819     13818     13821     13820     13818     13821     13818     13821     13822
     13821     13822     13823     13821     13822     13824     13823     13822     13824
     13822     13824     13825     13822     13824     13826     13822     13824     13874
     13825     13824     13826     13825     13824     13874     13826     13824     13874
     13815     13827     13828     13815     13827     13829     13815     13827     13830
     13828     13827     13829     13828     13827     13830     13829     13827     13830
     13827     13830     13831     13827     13830     13832     13827     13830     13833
     13831     13830     13832     13831     13830     13833     13832     13830     13833
     13830     13833     13834     13830     13833     13835     13830     13833     13836
     13834     13833     13835     13834     13833     13836     13835     13833     13836
     13833     13836     13837     13833     13836     13838     13833     13836     13839
     13837     13836     13838     13837     13836     13839     13838     13836     13839
     13836     13839     13840     13836     13839     13841     13836     13839     13842
     13840     13839     13841     13840     13839     13842     13841     13839     13842
     13839     13842     13843     13839     13842     13844     13839     13842     13845
     13843     13842     13844     13843     13842     13845     13844     13842     13845
     13842     13845     13846     13842     13845     13847     13846     13845     13847
     13845     13847     13848     13845     13847     13849     13848     13847     13849
     13847     13849     13850     13847     13849     13851     13847     13849     13852
     13850     13849     13851     13850     13849     13852     13851     13849     13852
     13849     13852     13853     13849     13852     13854     13849     13852     13855
     13853     13852     13854     13853     13852     13855     13854     13852     13855
     13852     13855     13856     13852     13855     13857     13852     13855     13858
     13856     13855     13857     13856     13855     13858     13857     13855     13858
     13855     13858     13859     13855     13858     13860     13855     13858     13861
     13859     13858     13860     13859     13858     13861     13860     13858     13861
     13858     13861     13862     13858     13861     13863     13858     13861     13864
     13862     13861     13863     13862     13861     13864     13863     13861     13864
     13861     13864     13865     13861     13864     13866     13861     13864     13867
     13865     13864     13866     13865     13864     13867     13866     13864     13867
     13864     13867     13868     13864     13867     13869     13864     13867     13870
     13868     13867     13869     13868     13867     13870     13869     13867     13870
     13867     13870     13871     13867     13870     13872     13867     13870     13873
     13871     13870     13872     13871     13870     13873     13872     13870     13873
     13824     13874     13875     13824     13874     13876     13824     13874     13877
     13875     13874     13876     13875     13874     13877     13876     13874     13877
     13874     13877     13878     13874     13877     13879     13874     13877     13880
     13878     13877     13879     13878     13877     13880     13879     13877     13880
     13877     13880     13881     13877     13880     13882     13877     13880     13883
     13881     13880     13882     13881     13880     13883     13882     13880     13883
     13880     13883     13884     13880     13883     13885     13880     13883     13886
     13884     13883     13885     13884     13883     13886     13885     13883     13886
     13883     13886     13887     13883     13886     13888     13883     13886     13889
     13887     13886     13888     13887     13886     13889     13888     13886     13889
     13886     13889     13890     13886     13889     13891     13886     13889     13892
     13890     13889     13891     13890     13889     13892     13891     13889     13892
     13889     13892     13893     13889     13892     13894     13889     13892     13895
     13893     13892     13894     13893     13892     13895     13894     13892     13895
     13892     13895     13896     13892     13895     13897     13892     13895     13898
     13896     13895     13897     13896     13895     13898     13897     13895     13898
     13895     13898     13899     13895     13898     13900     13895     13898     13901
     13899     13898     13900     13899     13898     13901     13900     13898     13901
     13898     13901     13902     13898     13901     13903     13898     13901     13904
     13902     13901     13903     13902     13901     13904     13903     13901     13904
     13901     13904     13905     13901     13904     13906     13901     13904     13907
     13905     13904     13906     13905     13904     13907     13906     13904     13907
     13904     13907     13908     13904     13907     13909     13904     13907     13910
     13908     13907     13909     13908     13907     13910     13909     13907     13910
     13907     13910     13911     13907     13910     13912     13907     13910     13913
     13911     13910     13912     13911     13910     13913     13912     13910     13913
     13910     13913     13914     13910     13913     13915     13910     13913     13916
     13914     13913     13915     13914     13913     13916     13915     13913     13916
     13918     13917     13921     13918     13917     13925     13918     13917     13929
     13921     13917     13925     13921     13917     13929     13925     13917     13929
     13917     13918     13919     13917     13918     13920     13917     13918     13933
     13919     13918     13920     13919     13918     13933     13920     13918     13933
     13917     13921     13922     13917     13921     13923     13917     13921     13924
     13922     13921     13923     13922     13921     13924     13923     13921     13924
     13917     13925     13926     13917     13925     13927     13917     13925     13928
     13926     13925     13927     13926     13925     13928     13927     13925     13928
     13917     13929     13930     13917     13929     13931     13917     13929     13932
     13930     13929     13931     13930     13929     13932     13931     13929     13932
     13918     13933     13934     13918     13933     13935     13918     13933     13939
     13934     13933     13935     13934     13933     13939     13935     13933     13939
     13937     13936     13938     13937     13936     13939     13937     13936     13940
     13938     13936     13939     13938     13936     13940     13939     13936     13940
     13933     13939     13936     13936     13940     13941     13940     13941     13942
     13940     13941     13943     13940     13941     13944     13942     13941     13943
     13942     13941     13944     13943     13941     13944     13941     13944     13945
     13941     13944     13946     13941     13944     13952     13945     13944     13946
     13945     13944     13952     13946     13944     13952     13944     13946     13947
     13946     13947     13948     13946     13947     13949     13948     13947     13949
     13947     13949     13950     13947     13949     13951     13947     13949     13961
     13950     13949     13951     13950     13949     13961     13951     13949     13961
     13944     13952     13953     13944     13952     13954     13944     13952     13955
     13953     13952     13954     13953     13952     13955     13954     13952     13955
     13952     13955     13956     13955     13956     13957     13955     13956     13958
     13957     13956     13958     13956     13958     13959     13956     13958     13960
     13956     13958     14008     13959     13958     13960     13959     13958     14008
     13960     13958     14008     13949     13961     13962     13949     13961     13963
     13949     13961     13964     13962     13961     13963     13962     13961     13964
     13963     13961     13964     13961     13964     13965     13961     13964     13966
     13961     13964     13967     13965     13964     13966     13965     13964     13967
     13966     13964     13967     13964     13967     13968     13964     13967     13969
     13964     13967     13970     13968     13967     13969     13968     13967     13970
     13969     13967     13970     13967     13970     13971     13967     13970     13972
     13967     13970     13973     13971     13970     13972     13971     13970     13973
     13972     13970     13973     13970     13973     13974     13970     13973     13975
     13970     13973     13976     13974     13973     13975     13974     13973     13976
     13975     13973     13976     13973     13976     13977     13973     13976     13978
     13973     13976     13979     13977     13976     13978     13977     13976     13979
     13978     13976     13979     13976     13979     13980     13976     13979     13981
     13980     13979     13981     13979     13981     13982     13979     13981     13983
     13982     13981     13983     13981     13983     13984     13981     13983     13985
     13981     13983     13986     13984     13983     13985     13984     13983     13986
     13985     13983     13986     13983     13986     13987     13983     13986     13988
     13983     13986     13989     13987     13986     13988     13987     13986     13989
     13988     13986     13989     13986     13989     13990     13986     13989     13991
     13986     13989     13992     13990     13989     13991     13990     13989     13992
     13991     13989     13992     13989     13992     13993     13989     13992     13994
     13989     13992     13995     13993     13992     13994     13993     13992     13995
     13994     13992     13995     13992     13995     13996     13992     13995     13997
     13992     13995     13998     13996     13995     13997     13996     13995     13998
     13997     13995     13998     13995     13998     13999     13995     13998     14000
     13995     13998     14001     13999     13998     14000     13999     13998     14001
     14000     13998     14001     13998     14001     14002     13998     14001     14003
     13998     14001     14004     14002     14001     14003     14002     14001     14004
     14003     14001     14004     14001     14004     14005     14001     14004     14006
     14001     14004     14007     14005     14004     14006     14005     14004     14007
     14006     14004     14007     13958     14008     14009     13958     14008     14010
     13958     14008     14011     14009     14008     14010     14009     14008     14011
     14010     14008     14011     14008     14011     14012     14008     14011     14013
     14008     14011     14014     14012     14011     14013     14012     14011     14014
     14013     14011     14014     14011     14014     14015     14011     14014     14016
     14011     14014     14017     14015     14014     14016     14015     14014     14017
     14016     14014     14017     14014     14017     14018     14014     14017     14019
     14014     14017     14020     14018     14017     14019     14018     14017     14020
     14019     14017     14020     14017     14020     14021     14017     14020     14022
     14017     14020     14023     14021     14020     14022     14021     14020     14023
     14022     14020     14023     14020     14023     14024     14020     14023     14025
     14020     14023     14026     14024     14023     14025     14024     14023     14026
     14025     14023     14026     14023     14026     14027     14023     14026     14028
     14023     14026     14029     14027     14026     14028     14027     14026     14029
     14028     14026     14029     14026     14029     14030     14026     14029     14031
     14026     14029     14032     14030     14029     14031     14030     14029     14032
     14031     14029     14032     14029     14032     14033     14029     14032     14034
     14029     14032     14035     14033     14032     14034     14033     14032     14035
     14034     14032     14035     14032     14035     14036     14032     14035     14037
     14032     14035     14038     14036     14035     14037     14036     14035     14038
     14037     14035     14038     14035     14038     14039     14035     14038     14040
     14035     14038     14041     14039     14038     14040     14039     14038     14041
     14040     14038     14041     14038     14041     14042     14038     14041     14043
     14038     14041     14044     14042     14041     14043     14042     14041     14044
     14043     14041     14044     14041     14044     14045     14041     14044     14046
     14041     14044     14047     14045     14044     14046     14045     14044     14047
     14046     14044     14047     14044     14047     14048     14044     14047     14049
     14044     14047     14050     14048     14047     14049     14048     14047     14050
     14049     14047     14050     14052     14051     14055     14052     14051     14059
     14052     14051     14063     14055     14051     14059     14055     14051     14063
     14059     14051     14063     14051     14052     14053     14051     14052     14054
     14051     14052     14067     14053     14052     14054     14053     14052     14067
     14054     14052     14067     14051     14055     14056     14051     14055     14057
     14051     14055     14058     14056     14055     14057     14056     14055     14058
     14057     14055     14058     14051     14059     14060     14051     14059     14061
     14051     14059     14062     14060     14059     14061     14060     14059     14062
     14061     14059     14062     14051     14063     14064     14051     14063     14065
     14051     14063     14066     14064     14063     14065     14064     14063     14066
     14065     14063     14066     14052     14067     14068     14052     14067     14069
     14052     14067     14073     14068     14067     14069     14068     14067     14073
     14069     14067     14073     14071     14070     14072     14071     14070     14073
     14071     14070     14074     14072     14070     14073     14072     14070     14074
     14073     14070     14074     14067     14073     14070     14070     14074     14075
     14074     14075     14076     14074     14075     14077     14074     14075     14078
     14076     14075     14077     14076     14075     14078     14077     14075     14078
     14075     14078     14079     14075     14078     14080     14075     14078     14086
     14079     14078     14080     14079     14078     14086     14080     14078     14086
     14078     14080     14081     14080     14081     14082     14080     14081     14083
     14082     14081     14083     14081     14083     14084     14081     14083     14085
     14081     14083     14095     14084     14083     14085     14084     14083     14095
     14085     14083     14095     14078     14086     14087     14078     14086     14088
     14078     14086     14089     14087     14086     14088     14087     14086     14089
     14088     14086     14089     14086     14089     14090     14089     14090     14091
     14089     14090     14092     14091     14090     14092     14090     14092     14093
     14090     14092     14094     14090     14092     14142     14093     14092     14094
     14093     14092     14142     14094     14092     14142     14083     14095     14096
     14083     14095     14097     14083     14095     14098     14096     14095     14097
     14096     14095     14098     14097     14095     14098     14095     14098     14099
     14095     14098     14100     14095     14098     14101     14099     14098     14100
     14099     14098     14101     14100     14098     14101     14098     14101     14102
     14098     14101     14103     14098     14101     14104     14102     14101     14103
     14102     14101     14104     14103     14101     14104     14101     14104     14105
     14101     14104     14106     14101     14104     14107     14105     14104     14106
     14105     14104     14107     14106     14104     14107     14104     14107     14108
     14104     14107     14109     14104     14107     14110     14108     14107     14109
     14108     14107     14110     14109     14107     14110     14107     14110     14111
     14107     14110     14112     14107     14110     14113     14111     14110     14112
     14111     14110     14113     14112     14110     14113     14110     14113     14114
     14110     14113     14115     14114     14113     14115     14113     14115     14116
     14113     14115     14117     14116     14115     14117     14115     14117     14118
     14115     14117     14119     14115     14117     14120     14118     14117     14119
     14118     14117     14120     14119     14117     14120     14117     14120     14121
     14117     14120     14122     14117     14120     14123     14121     14120     14122
     14121     14120     14123     14122     14120     14123     14120     14123     14124
     14120     14123     14125     14120     14123     14126     14124     14123     14125
     14124     14123     14126     14125     14123     14126     14123     14126     14127
     14123     14126     14128     14123     14126     14129     14127     14126     14128
     14127     14126     14129     14128     14126     14129     14126     14129     14130
     14126     14129     14131     14126     14129     14132     14130     14129     14131
     14130     14129     14132     14131     14129     14132     14129     14132     14133
     14129     14132     14134     14129     14132     14135     14133     14132     14134
     14133     14132     14135     14134     14132     14135     14132     14135     14136
     14132     14135     14137     14132     14135     14138     14136     14135     14137
     14136     14135     14138     14137     14135     14138     14135     14138     14139
     14135     14138     14140     14135     14138     14141     14139     14138     14140
     14139     14138     14141     14140     14138     14141     14092     14142     14143
     14092     14142     14144     14092     14142     14145     14143     14142     14144
     14143     14142     14145     14144     14142     14145     14142     14145     14146
     14142     14145     14147     14142     14145     14148     14146     14145     14147
     14146     14145     14148     14147     14145     14148     14145     14148     14149
     14145     14148     14150     14145     14148     14151     14149     14148     14150
     14149     14148     14151     14150     14148     14151     14148     14151     14152
     14148     14151     14153     14148     14151     14154     14152     14151     14153
     14152     14151     14154     14153     14151     14154     14151     14154     14155
     14151     14154     14156     14151     14154     14157     14155     14154     14156
     14155     14154     14157     14156     14154     14157     14154     14157     14158
     14154     14157     14159     14154     14157     14160     14158     14157     14159
     14158     14157     14160     14159     14157     14160     14157     14160     14161
     14157     14160     14162     14157     14160     14163     14161     14160     14162
     14161     14160     14163     14162     14160     14163     14160     14163     14164
     14160     14163     14165     14160     14163     14166     14164     14163     14165
     14164     14163     14166     14165     14163     14166     14163     14166     14167
     14163     14166     14168     14163     14166     14169     14167     14166     14168
     14167     14166     14169     14168     14166     14169     14166     14169     14170
     14166     14169     14171     14166     14169     14172     14170     14169     14171
     14170     14169     14172     14171     14169     14172     14169     14172     14173
     14169     14172     14174     14169     14172     14175     14173     14172     14174
     14173     14172     14175     14174     14172     14175     14172     14175     14176
     14172     14175     14177     14172     14175     14178     14176     14175     14177
     14176     14175     14178     14177     14175     14178     14175     14178     14179
     14175     14178     14180     14175     14178     14181     14179     14178     14180
     14179     14178     14181     14180     14178     14181     14178     14181     14182
     14178     14181     14183     14178     14181     14184     14182     14181     14183
     14182     14181     14184     14183     14181     14184     14186     14185     14189
     14186     14185     14193     14186     14185     14197     14189     14185     14193
     14189     14185     14197     14193     14185     14197     14185     14186     14187
     14185     14186     14188     14185     14186     14201     14187     14186     14188
     14187     14186     14201     14188     14186     14201     14185     14189     14190
     14185     14189     14191     14185     14189     14192     14190     14189     14191
     14190     14189     14192     14191     14189     14192     14185     14193     14194
     14185     14193     14195     14185     14193     14196     14194     14193     14195
     14194     14193     14196     14195     14193     14196     14185     14197     14198
     14185     14197     14199     14185     14197     14200     14198     14197     14199
     14198     14197     14200     14199     14197     14200     14186     14201     14202
     14186     14201     14203     14186     14201     14207     14202     14201     14203
     14202     14201     14207     14203     14201     14207     14205     14204     14206
     14205     14204     14207     14205     14204     14208     14206     14204     14207
     14206     14204     14208     14207     14204     14208     14201     14207     14204
     14204     14208     14209     14208     14209     14210     14208     14209     14211
     14208     14209     14212     14210     14209     14211     14210     14209     14212
     14211     14209     14212     14209     14212     14213     14209     14212     14214
     14209     14212     14220     14213     14212     14214     14213     14212     14220
     14214     14212     14220     14212     14214     14215     14214     14215     14216
     14214     14215     14217     14216     14215     14217     14215     14217     14218
     14215     14217     14219     14215     14217     14229     14218     14217     14219
     14218     14217     14229     14219     14217     14229     14212     14220     14221
     14212     14220     14222     14212     14220     14223     14221     14220     14222
     14221     14220     14223     14222     14220     14223     14220     14223     14224
     14223     14224     14225     14223     14224     14226     14225     14224     14226
     14224     14226     14227     14224     14226     14228     14224     14226     14276
     14227     14226     14228     14227     14226     14276     14228     14226     14276
     14217     14229     14230     14217     14229     14231     14217     14229     14232
     14230     14229     14231     14230     14229     14232     14231     14229     14232
     14229     14232     14233     14229     14232     14234     14229     14232     14235
     14233     14232     14234     14233     14232     14235     14234     14232     14235
     14232     14235     14236     14232     14235     14237     14232     14235     14238
     14236     14235     14237     14236     14235     14238     14237     14235     14238
     14235     14238     14239     14235     14238     14240     14235     14238     14241
     14239     14238     14240     14239     14238     14241     14240     14238     14241
     14238     14241     14242     14238     14241     14243     14238     14241     14244
     14242     14241     14243     14242     14241     14244     14243     14241     14244
     14241     14244     14245     14241     14244     14246     14241     14244     14247
     14245     14244     14246     14245     14244     14247     14246     14244     14247
     14244     14247     14248     14244     14247     14249     14248     14247     14249
     14247     14249     14250     14247     14249     14251     14250     14249     14251
     14249     14251     14252     14249     14251     14253     14249     14251     14254
     14252     14251     14253     14252     14251     14254     14253     14251     14254
     14251     14254     14255     14251     14254     14256     14251     14254     14257
     14255     14254     14256     14255     14254     14257     14256     14254     14257
     14254     14257     14258     14254     14257     14259     14254     14257     14260
     14258     14257     14259     14258     14257     14260     14259     14257     14260
     14257     14260     14261     14257     14260     14262     14257     14260     14263
     14261     14260     14262     14261     14260     14263     14262     14260     14263
     14260     14263     14264     14260     14263     14265     14260     14263     14266
     14264     14263     14265     14264     14263     14266     14265     14263     14266
     14263     14266     14267     14263     14266     14268     14263     14266     14269
     14267     14266     14268     14267     14266     14269     14268     14266     14269
     14266     14269     14270     14266     14269     14271     14266     14269     14272
     14270     14269     14271     14270     14269     14272     14271     14269     14272
     14269     14272     14273     14269     14272     14274     14269     14272     14275
     14273     14272     14274     14273     14272     14275     14274     14272     14275
     14226     14276     14277     14226     14276     14278     14226     14276     14279
     14277     14276     14278     14277     14276     14279     14278     14276     14279
     14276     14279     14280     14276     14279     14281     14276     14279     14282
     14280     14279     14281     14280     14279     14282     14281     14279     14282
     14279     14282     14283     14279     14282     14284     14279     14282     14285
     14283     14282     14284     14283     14282     14285     14284     14282     14285
     14282     14285     14286     14282     14285     14287     14282     14285     14288
     14286     14285     14287     14286     14285     14288     14287     14285     14288
     14285     14288     14289     14285     14288     14290     14285     14288     14291
     14289     14288     14290     14289     14288     14291     14290     14288     14291
     14288     14291     14292     14288     14291     14293     14288     14291     14294
     14292     14291     14293     14292     14291     14294     14293     14291     14294
     14291     14294     14295     14291     14294     14296     14291     14294     14297
     14295     14294     14296     14295     14294     14297     14296     14294     14297
     14294     14297     14298     14294     14297     14299     14294     14297     14300
     14298     14297     14299     14298     14297     14300     14299     14297     14300
     14297     14300     14301     14297     14300     14302     14297     14300     14303
     14301     14300     14302     14301     14300     14303     14302     14300     14303
     14300     14303     14304     14300     14303     14305     14300     14303     14306
     14304     14303     14305     14304     14303     14306     14305     14303     14306
     14303     14306     14307     14303     14306     14308     14303     14306     14309
     14307     14306     14308     14307     14306     14309     14308     14306     14309
     14306     14309     14310     14306     14309     14311     14306     14309     14312
     14310     14309     14311     14310     14309     14312     14311     14309     14312
     14309     14312     14313     14309     14312     14314     14309     14312     14315
     14313     14312     14314     14313     14312     14315     14314     14312     14315
     14312     14315     14316     14312     14315     14317     14312     14315     14318
     14316     14315     14317     14316     14315     14318     14317     14315     14318
     14320     14319     14323     14320     14319     14327     14320     14319     14331
     14323     14319     14327     14323     14319     14331     14327     14319     14331
     14319     14320     14321     14319     14320     14322     14319     14320     14335
     14321     14320     14322     14321     14320     14335     14322     14320     14335
     14319     14323     14324     14319     14323     14325     14319     14323     14326
     14324     14323     14325     14324     14323     14326     14325     14323     14326
     14319     14327     14328     14319     14327     14329     14319     14327     14330
     14328     14327     14329     14328     14327     14330     14329     14327     14330
     14319     14331     14332     14319     14331     14333     14319     14331     14334
     14332     14331     14333     14332     14331     14334     14333     14331     14334
     14320     14335     14336     14320     14335     14337     14320     14335     14341
     14336     14335     14337     14336     14335     14341     14337     14335     14341
     14339     14338     14340     14339     14338     14341     14339     14338     14342
     14340     14338     14341     14340     14338     14342     14341     14338     14342
     14335     14341     14338     14338     14342     14343     14342     14343     14344
     14342     14343     14345     14342     14343     14346     14344     14343     14345
     14344     14343     14346     14345     14343     14346     14343     14346     14347
     14343     14346     14348     14343     14346     14354     14347     14346     14348
     14347     14346     14354     14348     14346     14354     14346     14348     14349
     14348     14349     14350     14348     14349     14351     14350     14349     14351
     14349     14351     14352     14349     14351     14353     14349     14351     14363
     14352     14351     14353     14352     14351     14363     14353     14351     14363
     14346     14354     14355     14346     14354     14356     14346     14354     14357
     14355     14354     14356     14355     14354     14357     14356     14354     14357
     14354     14357     14358     14357     14358     14359     14357     14358     14360
     14359     14358     14360     14358     14360     14361     14358     14360     14362
     14358     14360     14410     14361     14360     14362     14361     14360     14410
     14362     14360     14410     14351     14363     14364     14351     14363     14365
     14351     14363     14366     14364     14363     14365     14364     14363     14366
     14365     14363     14366     14363     14366     14367     14363     14366     14368
     14363     14366     14369     14367     14366     14368     14367     14366     14369
     14368     14366     14369     14366     14369     14370     14366     14369     14371
     14366     14369     14372     14370     14369     14371     14370     14369     14372
     14371     14369     14372     14369     14372     14373     14369     14372     14374
     14369     14372     14375     14373     14372     14374     14373     14372     14375
     14374     14372     14375     14372     14375     14376     14372     14375     14377
     14372     14375     14378     14376     14375     14377     14376     14375     14378
     14377     14375     14378     14375     14378     14379     14375     14378     14380
     14375     14378     14381     14379     14378     14380     14379     14378     14381
     14380     14378     14381     14378     14381     14382     14378     14381     14383
     14382     14381     14383     14381     14383     14384     14381     14383     14385
     14384     14383     14385     14383     14385     14386     14383     14385     14387
     14383     14385     14388     14386     14385     14387     14386     14385     14388
     14387     14385     14388     14385     14388     14389     14385     14388     14390
     14385     14388     14391     14389     14388     14390     14389     14388     14391
     14390     14388     14391     14388     14391     14392     14388     14391     14393
     14388     14391     14394     14392     14391     14393     14392     14391     14394
     14393     14391     14394     14391     14394     14395     14391     14394     14396
     14391     14394     14397     14395     14394     14396     14395     14394     14397
     14396     14394     14397     14394     14397     14398     14394     14397     14399
     14394     14397     14400     14398     14397     14399     14398     14397     14400
     14399     14397     14400     14397     14400     14401     14397     14400     14402
     14397     14400     14403     14401     14400     14402     14401     14400     14403
     14402     14400     14403     14400     14403     14404     14400     14403     14405
     14400     14403     14406     14404     14403     14405     14404     14403     14406
     14405     14403     14406     14403     14406     14407     14403     14406     14408
     14403     14406     14409     14407     14406     14408     14407     14406     14409
     14408     14406     14409     14360     14410     14411     14360     14410     14412
     14360     14410     14413     14411     14410     14412     14411     14410     14413
     14412     14410     14413     14410     14413     14414     14410     14413     14415
     14410     14413     14416     14414     14413     14415     14414     14413     14416
     14415     14413     14416     14413     14416     14417     14413     14416     14418
     14413     14416     14419     14417     14416     14418     14417     14416     14419
     14418     14416     14419     14416     14419     14420     14416     14419     14421
     14416     14419     14422     14420     14419     14421     14420     14419     14422
     14421     14419     14422     14419     14422     14423     14419     14422     14424
     14419     14422     14425     14423     14422     14424     14423     14422     14425
     14424     14422     14425     14422     14425     14426     14422     14425     14427
     14422     14425     14428     14426     14425     14427     14426     14425     14428
     14427     14425     14428     14425     14428     14429     14425     14428     14430
     14425     14428     14431     14429     14428     14430     14429     14428     14431
     14430     14428     14431     14428     14431     14432     14428     14431     14433
     14428     14431     14434     14432     14431     14433     14432     14431     14434
     14433     14431     14434     14431     14434     14435     14431     14434     14436
     14431     14434     14437     14435     14434     14436     14435     14434     14437
     14436     14434     14437     14434     14437     14438     14434     14437     14439
     14434     14437     14440     14438     14437     14439     14438     14437     14440
     14439     14437     14440     14437     14440     14441     14437     14440     14442
     14437     14440     14443     14441     14440     14442     14441     14440     14443
     14442     14440     14443     14440     14443     14444     14440     14443     14445
     14440     14443     14446     14444     14443     14445     14444     14443     14446
     14445     14443     14446     14443     14446     14447     14443     14446     14448
     14443     14446     14449     14447     14446     14448     14447     14446     14449
     14448     14446     14449     14446     14449     14450     14446     14449     14451
     14446     14449     14452     14450     14449     14451     14450     14449     14452
     14451     14449     14452     14454     14453     14457     14454     14453     14461
     14454     14453     14465     14457     14453     14461     14457     14453     14465
     14461     14453     14465     14453     14454     14455     14453     14454     14456
     14453     14454     14469     14455     14454     14456     14455     14454     14469
     14456     14454     14469     14453     14457     14458     14453     14457     14459
     14453     14457     14460     14458     14457     14459     14458     14457     14460
     14459     14457     14460     14453     14461     14462     14453     14461     14463
     14453     14461     14464     14462     14461     14463     14462     14461     14464
     14463     14461     14464     14453     14465     14466     14453     14465     14467
     14453     14465     14468     14466     14465     14467     14466     14465     14468
     14467     14465     14468     14454     14469     14470     14454     14469     14471
     14454     14469     14475     14470     14469     14471     14470     14469     14475
     14471     14469     14475     14473     14472     14474     14473     14472     14475
     14473     14472     14476     14474     14472     14475     14474     14472     14476
     14475     14472     14476     14469     14475     14472     14472     14476     14477
     14476     14477     14478     14476     14477     14479     14476     14477     14480
     14478     14477     14479     14478     14477     14480     14479     14477     14480
     14477     14480     14481     14477     14480     14482     14477     14480     14488
     14481     14480     14482     14481     14480     14488     14482     14480     14488
     14480     14482     14483     14482     14483     14484     14482     14483     14485
     14484     14483     14485     14483     14485     14486     14483     14485     14487
     14483     14485     14497     14486     14485     14487     14486     14485     14497
     14487     14485     14497     14480     14488     14489     14480     14488     14490
     14480     14488     14491     14489     14488     14490     14489     14488     14491
     14490     14488     14491     14488     14491     14492     14491     14492     14493
     14491     14492     14494     14493     14492     14494     14492     14494     14495
     14492     14494     14496     14492     14494     14544     14495     14494     14496
     14495     14494     14544     14496     14494     14544     14485     14497     14498
     14485     14497     14499     14485     14497     14500     14498     14497     14499
     14498     14497     14500     14499     14497     14500     14497     14500     14501
     14497     14500     14502     14497     14500     14503     14501     14500     14502
     14501     14500     14503     14502     14500     14503     14500     14503     14504
     14500     14503     14505     14500     14503     14506     14504     14503     14505
     14504     14503     14506     14505     14503     14506     14503     14506     14507
     14503     14506     14508     14503     14506     14509     14507     14506     14508
     14507     14506     14509     14508     14506     14509     14506     14509     14510
     14506     14509     14511     14506     14509     14512     14510     14509     14511
     14510     14509     14512     14511     14509     14512     14509     14512     14513
     14509     14512     14514     14509     14512     14515     14513     14512     14514
     14513     14512     14515     14514     14512     14515     14512     14515     14516
     14512     14515     14517     14516     14515     14517     14515     14517     14518
     14515     14517     14519     14518     14517     14519     14517     14519     14520
     14517     14519     14521     14517     14519     14522     14520     14519     14521
     14520     14519     14522     14521     14519     14522     14519     14522     14523
     14519     14522     14524     14519     14522     14525     14523     14522     14524
     14523     14522     14525     14524     14522     14525     14522     14525     14526
     14522     14525     14527     14522     14525     14528     14526     14525     14527
     14526     14525     14528     14527     14525     14528     14525     14528     14529
     14525     14528     14530     14525     14528     14531     14529     14528     14530
     14529     14528     14531     14530     14528     14531     14528     14531     14532
     14528     14531     14533     14528     14531     14534     14532     14531     14533
     14532     14531     14534     14533     14531     14534     14531     14534     14535
     14531     14534     14536     14531     14534     14537     14535     14534     14536
     14535     14534     14537     14536     14534     14537     14534     14537     14538
     14534     14537     14539     14534     14537     14540     14538     14537     14539
     14538     14537     14540     14539     14537     14540     14537     14540     14541
     14537     14540     14542     14537     14540     14543     14541     14540     14542
     14541     14540     14543     14542     14540     14543     14494     14544     14545
     14494     14544     14546     14494     14544     14547     14545     14544     14546
     14545     14544     14547     14546     14544     14547     14544     14547     14548
     14544     14547     14549     14544     14547     14550     14548     14547     14549
     14548     14547     14550     14549     14547     14550     14547     14550     14551
     14547     14550     14552     14547     14550     14553     14551     14550     14552
     14551     14550     14553     14552     14550     14553     14550     14553     14554
     14550     14553     14555     14550     14553     14556     14554     14553     14555
     14554     14553     14556     14555     14553     14556     14553     14556     14557
     14553     14556     14558     14553     14556     14559     14557     14556     14558
     14557     14556     14559     14558     14556     14559     14556     14559     14560
     14556     14559     14561     14556     14559     14562     14560     14559     14561
     14560     14559     14562     14561     14559     14562     14559     14562     14563
     14559     14562     14564     14559     14562     14565     14563     14562     14564
     14563     14562     14565     14564     14562     14565     14562     14565     14566
     14562     14565     14567     14562     14565     14568     14566     14565     14567
     14566     14565     14568     14567     14565     14568     14565     14568     14569
     14565     14568     14570     14565     14568     14571     14569     14568     14570
     14569     14568     14571     14570     14568     14571     14568     14571     14572
     14568     14571     14573     14568     14571     14574     14572     14571     14573
     14572     14571     14574     14573     14571     14574     14571     14574     14575
     14571     14574     14576     14571     14574     14577     14575     14574     14576
     14575     14574     14577     14576     14574     14577     14574     14577     14578
     14574     14577     14579     14574     14577     14580     14578     14577     14579
     14578     14577     14580     14579     14577     14580     14577     14580     14581
     14577     14580     14582     14577     14580     14583     14581     14580     14582
     14581     14580     14583     14582     14580     14583     14580     14583     14584
     14580     14583     14585     14580     14583     14586     14584     14583     14585
     14584     14583     14586     14585     14583     14586     14588     14587     14591
     14588     14587     14595     14588     14587     14599     14591     14587     14595
     14591     14587     14599     14595     14587     14599     14587     14588     14589
     14587     14588     14590     14587     14588     14603     14589     14588     14590
     14589     14588     14603     14590     14588     14603     14587     14591     14592
     14587     14591     14593     14587     14591     14594     14592     14591     14593
     14592     14591     14594     14593     14591     14594     14587     14595     14596
     14587     14595     14597     14587     14595     14598     14596     14595     14597
     14596     14595     14598     14597     14595     14598     14587     14599     14600
     14587     14599     14601     14587     14599     14602     14600     14599     14601
     14600     14599     14602     14601     14599     14602     14588     14603     14604
     14588     14603     14605     14588     14603     14609     14604     14603     14605
     14604     14603     14609     14605     14603     14609     14607     14606     14608
     14607     14606     14609     14607     14606     14610     14608     14606     14609
     14608     14606     14610     14609     14606     14610     14603     14609     14606
     14606     14610     14611     14610     14611     14612     14610     14611     14613
     14610     14611     14614     14612     14611     14613     14612     14611     14614
     14613     14611     14614     14611     14614     14615     14611     14614     14616
     14611     14614     14622     14615     14614     14616     14615     14614     14622
     14616     14614     14622     14614     14616     14617     14616     14617     14618
     14616     14617     14619     14618     14617     14619     14617     14619     14620
     14617     14619     14621     14617     14619     14631     14620     14619     14621
     14620     14619     14631     14621     14619     14631     14614     14622     14623
     14614     14622     14624     14614     14622     14625     14623     14622     14624
     14623     14622     14625     14624     14622     14625     14622     14625     14626
     14625     14626     14627     14625     14626     14628     14627     14626     14628
     14626     14628     14629     14626     14628     14630     14626     14628     14678
     14629     14628     14630     14629     14628     14678     14630     14628     14678
     14619     14631     14632     14619     14631     14633     14619     14631     14634
     14632     14631     14633     14632     14631     14634     14633     14631     14634
     14631     14634     14635     14631     14634     14636     14631     14634     14637
     14635     14634     14636     14635     14634     14637     14636     14634     14637
     14634     14637     14638     14634     14637     14639     14634     14637     14640
     14638     14637     14639     14638     14637     14640     14639     14637     14640
     14637     14640     14641     14637     14640     14642     14637     14640     14643
     14641     14640     14642     14641     14640     14643     14642     14640     14643
     14640     14643     14644     14640     14643     14645     14640     14643     14646
     14644     14643     14645     14644     14643     14646     14645     14643     14646
     14643     14646     14647     14643     14646     14648     14643     14646     14649
     14647     14646     14648     14647     14646     14649     14648     14646     14649
     14646     14649     14650     14646     14649     14651     14650     14649     14651
     14649     14651     14652     14649     14651     14653     14652     14651     14653
     14651     14653     14654     14651     14653     14655     14651     14653     14656
     14654     14653     14655     14654     14653     14656     14655     14653     14656
     14653     14656     14657     14653     14656     14658     14653     14656     14659
     14657     14656     14658     14657     14656     14659     14658     14656     14659
     14656     14659     14660     14656     14659     14661     14656     14659     14662
     14660     14659     14661     14660     14659     14662     14661     14659     14662
     14659     14662     14663     14659     14662     14664     14659     14662     14665
     14663     14662     14664     14663     14662     14665     14664     14662     14665
     14662     14665     14666     14662     14665     14667     14662     14665     14668
     14666     14665     14667     14666     14665     14668     14667     14665     14668
     14665     14668     14669     14665     14668     14670     14665     14668     14671
     14669     14668     14670     14669     14668     14671     14670     14668     14671
     14668     14671     14672     14668     14671     14673     14668     14671     14674
     14672     14671     14673     14672     14671     14674     14673     14671     14674
     14671     14674     14675     14671     14674     14676     14671     14674     14677
     14675     14674     14676     14675     14674     14677     14676     14674     14677
     14628     14678     14679     14628     14678     14680     14628     14678     14681
     14679     14678     14680     14679     14678     14681     14680     14678     14681
     14678     14681     14682     14678     14681     14683     14678     14681     14684
     14682     14681     14683     14682     14681     14684     14683     14681     14684
     14681     14684     14685     14681     14684     14686     14681     14684     14687
     14685     14684     14686     14685     14684     14687     14686     14684     14687
     14684     14687     14688     14684     14687     14689     14684     14687     14690
     14688     14687     14689     14688     14687     14690     14689     14687     14690
     14687     14690     14691     14687     14690     14692     14687     14690     14693
     14691     14690     14692     14691     14690     14693     14692     14690     14693
     14690     14693     14694     14690     14693     14695     14690     14693     14696
     14694     14693     14695     14694     14693     14696     14695     14693     14696
     14693     14696     14697     14693     14696     14698     14693     14696     14699
     14697     14696     14698     14697     14696     14699     14698     14696     14699
     14696     14699     14700     14696     14699     14701     14696     14699     14702
     14700     14699     14701     14700     14699     14702     14701     14699     14702
     14699     14702     14703     14699     14702     14704     14699     14702     14705
     14703     14702     14704     14703     14702     14705     14704     14702     14705
     14702     14705     14706     14702     14705     14707     14702     14705     14708
     14706     14705     14707     14706     14705     14708     14707     14705     14708
     14705     14708     14709     14705     14708     14710     14705     14708     14711
     14709     14708     14710     14709     14708     14711     14710     14708     14711
     14708     14711     14712     14708     14711     14713     14708     14711     14714
     14712     14711     14713     14712     14711     14714     14713     14711     14714
     14711     14714     14715     14711     14714     14716     14711     14714     14717
     14715     14714     14716     14715     14714     14717     14716     14714     14717
     14714     14717     14718     14714     14717     14719     14714     14717     14720
     14718     14717     14719     14718     14717     14720     14719     14717     14720
     14722     14721     14725     14722     14721     14729     14722     14721     14733
     14725     14721     14729     14725     14721     14733     14729     14721     14733
     14721     14722     14723     14721     14722     14724     14721     14722     14737
     14723     14722     14724     14723     14722     14737     14724     14722     14737
     14721     14725     14726     14721     14725     14727     14721     14725     14728
     14726     14725     14727     14726     14725     14728     14727     14725     14728
     14721     14729     14730     14721     14729     14731     14721     14729     14732
     14730     14729     14731     14730     14729     14732     14731     14729     14732
     14721     14733     14734     14721     14733     14735     14721     14733     14736
     14734     14733     14735     14734     14733     14736     14735     14733     14736
     14722     14737     14738     14722     14737     14739     14722     14737     14743
     14738     14737     14739     14738     14737     14743     14739     14737     14743
     14741     14740     14742     14741     14740     14743     14741     14740     14744
     14742     14740     14743     14742     14740     14744     14743     14740     14744
     14737     14743     14740     14740     14744     14745     14744     14745     14746
     14744     14745     14747     14744     14745     14748     14746     14745     14747
     14746     14745     14748     14747     14745     14748     14745     14748     14749
     14745     14748     14750     14745     14748     14756     14749     14748     14750
     14749     14748     14756     14750     14748     14756     14748     14750     14751
     14750     14751     14752     14750     14751     14753     14752     14751     14753
     14751     14753     14754     14751     14753     14755     14751     14753     14765
     14754     14753     14755     14754     14753     14765     14755     14753     14765
     14748     14756     14757     14748     14756     14758     14748     14756     14759
     14757     14756     14758     14757     14756     14759     14758     14756     14759
     14756     14759     14760     14759     14760     14761     14759     14760     14762
     14761     14760     14762     14760     14762     14763     14760     14762     14764
     14760     14762     14812     14763     14762     14764     14763     14762     14812
     14764     14762     14812     14753     14765     14766     14753     14765     14767
     14753     14765     14768     14766     14765     14767     14766     14765     14768
     14767     14765     14768     14765     14768     14769     14765     14768     14770
     14765     14768     14771     14769     14768     14770     14769     14768     14771
     14770     14768     14771     14768     14771     14772     14768     14771     14773
     14768     14771     14774     14772     14771     14773     14772     14771     14774
     14773     14771     14774     14771     14774     14775     14771     14774     14776
     14771     14774     14777     14775     14774     14776     14775     14774     14777
     14776     14774     14777     14774     14777     14778     14774     14777     14779
     14774     14777     14780     14778     14777     14779     14778     14777     14780
     14779     14777     14780     14777     14780     14781     14777     14780     14782
     14777     14780     14783     14781     14780     14782     14781     14780     14783
     14782     14780     14783     14780     14783     14784     14780     14783     14785
     14784     14783     14785     14783     14785     14786     14783     14785     14787
     14786     14785     14787     14785     14787     14788     14785     14787     14789
     14785     14787     14790     14788     14787     14789     14788     14787     14790
     14789     14787     14790     14787     14790     14791     14787     14790     14792
     14787     14790     14793     14791     14790     14792     14791     14790     14793
     14792     14790     14793     14790     14793     14794     14790     14793     14795
     14790     14793     14796     14794     14793     14795     14794     14793     14796
     14795     14793     14796     14793     14796     14797     14793     14796     14798
     14793     14796     14799     14797     14796     14798     14797     14796     14799
     14798     14796     14799     14796     14799     14800     14796     14799     14801
     14796     14799     14802     14800     14799     14801     14800     14799     14802
     14801     14799     14802     14799     14802     14803     14799     14802     14804
     14799     14802     14805     14803     14802     14804     14803     14802     14805
     14804     14802     14805     14802     14805     14806     14802     14805     14807
     14802     14805     14808     14806     14805     14807     14806     14805     14808
     14807     14805     14808     14805     14808     14809     14805     14808     14810
     14805     14808     14811     14809     14808     14810     14809     14808     14811
     14810     14808     14811     14762     14812     14813     14762     14812     14814
     14762     14812     14815     14813     14812     14814     14813     14812     14815
     14814     14812     14815     14812     14815     14816     14812     14815     14817
     14812     14815     14818     14816     14815     14817     14816     14815     14818
     14817     14815     14818     14815     14818     14819     14815     14818     14820
     14815     14818     14821     14819     14818     14820     14819     14818     14821
     14820     14818     14821     14818     14821     14822     14818     14821     14823
     14818     14821     14824     14822     14821     14823     14822     14821     14824
     14823     14821     14824     14821     14824     14825     14821     14824     14826
     14821     14824     14827     14825     14824     14826     14825     14824     14827
     14826     14824     14827     14824     14827     14828     14824     14827     14829
     14824     14827     14830     14828     14827     14829     14828     14827     14830
     14829     14827     14830     14827     14830     14831     14827     14830     14832
     14827     14830     14833     14831     14830     14832     14831     14830     14833
     14832     14830     14833     14830     14833     14834     14830     14833     14835
     14830     14833     14836     14834     14833     14835     14834     14833     14836
     14835     14833     14836     14833     14836     14837     14833     14836     14838
     14833     14836     14839     14837     14836     14838     14837     14836     14839
     14838     14836     14839     14836     14839     14840     14836     14839     14841
     14836     14839     14842     14840     14839     14841     14840     14839     14842
     14841     14839     14842     14839     14842     14843     14839     14842     14844
     14839     14842     14845     14843     14842     14844     14843     14842     14845
     14844     14842     14845     14842     14845     14846     14842     14845     14847
     14842     14845     14848     14846     14845     14847     14846     14845     14848
     14847     14845     14848     14845     14848     14849     14845     14848     14850
     14845     14848     14851     14849     14848     14850     14849     14848     14851
     14850     14848     14851     14848     14851     14852     14848     14851     14853
     14848     14851     14854     14852     14851     14853     14852     14851     14854
     14853     14851     14854     14856     14855     14857     14856     14855     14858
     14856     14855     14859     14857     14855     14858     14857     14855     14859
     14858     14855     14859     14855     14859     14860     14855     14859     14861
     14855     14859     14864     14860     14859     14861     14860     14859     14864
     14861     14859     14864     14859     14861     14862     14859     14861     14863
     14862     14861     14863     14859     14864     14865     14859     14864     14866
     14859     14864     14870     14865     14864     14866     14865     14864     14870
     14866     14864     14870     14868     14867     14869     14868     14867     14870
     14868     14867     14871     14869     14867     14870     14869     14867     14871
     14870     14867     14871     14864     14870     14867     14867     14871     14872
     14871     14872     14873     14871     14872     14874     14871     14872     14875
     14873     14872     14874     14873     14872     14875     14874     14872     14875
     14872     14875     14876     14872     14875     14877     14872     14875     14883
     14876     14875     14877     14876     14875     14883     14877     14875     14883
     14875     14877     14878     14877     14878     14879     14877     14878     14880
     14879     14878     14880     14878     14880     14881     14878     14880     14882
     14878     14880     14892     14881     14880     14882     14881     14880     14892
     14882     14880     14892     14875     14883     14884     14875     14883     14885
     14875     14883     14886     14884     14883     14885     14884     14883     14886
     14885     14883     14886     14883     14886     14887     14886     14887     14888
     14886     14887     14889     14888     14887     14889     14887     14889     14890
     14887     14889     14891     14887     14889     14939     14890     14889     14891
     14890     14889     14939     14891     14889     14939     14880     14892     14893
     14880     14892     14894     14880     14892     14895     14893     14892     14894
     14893     14892     14895     14894     14892     14895     14892     14895     14896
     14892     14895     14897     14892     14895     14898     14896     14895     14897
     14896     14895     14898     14897     14895     14898     14895     14898     14899
     14895     14898     14900     14895     14898     14901     14899     14898     14900
     14899     14898     14901     14900     14898     14901     14898     14901     14902
     14898     14901     14903     14898     14901     14904     14902     14901     14903
     14902     14901     14904     14903     14901     14904     14901     14904     14905
     14901     14904     14906     14901     14904     14907     14905     14904     14906
     14905     14904     14907     14906     14904     14907     14904     14907     14908
     14904     14907     14909     14904     14907     14910     14908     14907     14909
     14908     14907     14910     14909     14907     14910     14907     14910     14911
     14907     14910     14912     14911     14910     14912     14910     14912     14913
     14910     14912     14914     14913     14912     14914     14912     14914     14915
     14912     14914     14916     14912     14914     14917     14915     14914     14916
     14915     14914     14917     14916     14914     14917     14914     14917     14918
     14914     14917     14919     14914     14917     14920     14918     14917     14919
     14918     14917     14920     14919     14917     14920     14917     14920     14921
     14917     14920     14922     14917     14920     14923     14921     14920     14922
     14921     14920     14923     14922     14920     14923     14920     14923     14924
     14920     14923     14925     14920     14923     14926     14924     14923     14925
     14924     14923     14926     14925     14923     14926     14923     14926     14927
     14923     14926     14928     14923     14926     14929     14927     14926     14928
     14927     14926     14929     14928     14926     14929     14926     14929     14930
     14926     14929     14931     14926     14929     14932     14930     14929     14931
     14930     14929     14932     14931     14929     14932     14929     14932     14933
     14929     14932     14934     14929     14932     14935     14933     14932     14934
     14933     14932     14935     14934     14932     14935     14932     14935     14936
     14932     14935     14937     14932     14935     14938     14936     14935     14937
     14936     14935     14938     14937     14935     14938     14889     14939     14940
     14889     14939     14941     14889     14939     14942     14940     14939     14941
     14940     14939     14942     14941     14939     14942     14939     14942     14943
     14939     14942     14944     14939     14942     14945     14943     14942     14944
     14943     14942     14945     14944     14942     14945     14942     14945     14946
     14942     14945     14947     14942     14945     14948     14946     14945     14947
     14946     14945     14948     14947     14945     14948     14945     14948     14949
     14945     14948     14950     14945     14948     14951     14949     14948     14950
     14949     14948     14951     14950     14948     14951     14948     14951     14952
     14948     14951     14953     14948     14951     14954     14952     14951     14953
     14952     14951     14954     14953     14951     14954     14951     14954     14955
     14951     14954     14956     14951     14954     14957     14955     14954     14956
     14955     14954     14957     14956     14954     14957     14954     14957     14958
     14954     14957     14959     14954     14957     14960     14958     14957     14959
     14958     14957     14960     14959     14957     14960     14957     14960     14961
     14957     14960     14962     14957     14960     14963     14961     14960     14962
     14961     14960     14963     14962     14960     14963     14960     14963     14964
     14960     14963     14965     14960     14963     14966     14964     14963     14965
     14964     14963     14966     14965     14963     14966     14963     14966     14967
     14963     14966     14968     14963     14966     14969     14967     14966     14968
     14967     14966     14969     14968     14966     14969     14966     14969     14970
     14966     14969     14971     14966     14969     14972     14970     14969     14971
     14970     14969     14972     14971     14969     14972     14969     14972     14973
     14969     14972     14974     14969     14972     14975     14973     14972     14974
     14973     14972     14975     14974     14972     14975     14972     14975     14976
     14972     14975     14977     14972     14975     14978     14976     14975     14977
     14976     14975     14978     14977     14975     14978     14975     14978     14979
     14975     14978     14980     14975     14978     14981     14979     14978     14980
     14979     14978     14981     14980     14978     14981     14983     14982     14986
     14983     14982     14990     14983     14982     14994     14986     14982     14990
     14986     14982     14994     14990     14982     14994     14982     14983     14984
     14982     14983     14985     14982     14983     14998     14984     14983     14985
     14984     14983     14998     14985     14983     14998     14982     14986     14987
     14982     14986     14988     14982     14986     14989     14987     14986     14988
     14987     14986     14989     14988     14986     14989     14982     14990     14991
     14982     14990     14992     14982     14990     14993     14991     14990     14992
     14991     14990     14993     14992     14990     14993     14982     14994     14995
     14982     14994     14996     14982     14994     14997     14995     14994     14996
     14995     14994     14997     14996     14994     14997     14983     14998     14999
     14983     14998     15000     14983     14998     15004     14999     14998     15000
     14999     14998     15004     15000     14998     15004     15002     15001     15003
     15002     15001     15004     15002     15001     15005     15003     15001     15004
     15003     15001     15005     15004     15001     15005     14998     15004     15001
     15001     15005     15006     15005     15006     15007     15005     15006     15008
     15005     15006     15009     15007     15006     15008     15007     15006     15009
     15008     15006     15009     15006     15009     15010     15006     15009     15011
     15006     15009     15017     15010     15009     15011     15010     15009     15017
     15011     15009     15017     15009     15011     15012     15011     15012     15013
     15011     15012     15014     15013     15012     15014     15012     15014     15015
     15012     15014     15016     15012     15014     15026     15015     15014     15016
     15015     15014     15026     15016     15014     15026     15009     15017     15018
     15009     15017     15019     15009     15017     15020     15018     15017     15019
     15018     15017     15020     15019     15017     15020     15017     15020     15021
     15020     15021     15022     15020     15021     15023     15022     15021     15023
     15021     15023     15024     15021     15023     15025     15021     15023     15073
     15024     15023     15025     15024     15023     15073     15025     15023     15073
     15014     15026     15027     15014     15026     15028     15014     15026     15029
     15027     15026     15028     15027     15026     15029     15028     15026     15029
     15026     15029     15030     15026     15029     15031     15026     15029     15032
     15030     15029     15031     15030     15029     15032     15031     15029     15032
     15029     15032     15033     15029     15032     15034     15029     15032     15035
     15033     15032     15034     15033     15032     15035     15034     15032     15035
     15032     15035     15036     15032     15035     15037     15032     15035     15038
     15036     15035     15037     15036     15035     15038     15037     15035     15038
     15035     15038     15039     15035     15038     15040     15035     15038     15041
     15039     15038     15040     15039     15038     15041     15040     15038     15041
     15038     15041     15042     15038     15041     15043     15038     15041     15044
     15042     15041     15043     15042     15041     15044     15043     15041     15044
     15041     15044     15045     15041     15044     15046     15045     15044     15046
     15044     15046     15047     15044     15046     15048     15047     15046     15048
     15046     15048     15049     15046     15048     15050     15046     15048     15051
     15049     15048     15050     15049     15048     15051     15050     15048     15051
     15048     15051     15052     15048     15051     15053     15048     15051     15054
     15052     15051     15053     15052     15051     15054     15053     15051     15054
     15051     15054     15055     15051     15054     15056     15051     15054     15057
     15055     15054     15056     15055     15054     15057     15056     15054     15057
     15054     15057     15058     15054     15057     15059     15054     15057     15060
     15058     15057     15059     15058     15057     15060     15059     15057     15060
     15057     15060     15061     15057     15060     15062     15057     15060     15063
     15061     15060     15062     15061     15060     15063     15062     15060     15063
     15060     15063     15064     15060     15063     15065     15060     15063     15066
     15064     15063     15065     15064     15063     15066     15065     15063     15066
     15063     15066     15067     15063     15066     15068     15063     15066     15069
     15067     15066     15068     15067     15066     15069     15068     15066     15069
     15066     15069     15070     15066     15069     15071     15066     15069     15072
     15070     15069     15071     15070     15069     15072     15071     15069     15072
     15023     15073     15074     15023     15073     15075     15023     15073     15076
     15074     15073     15075     15074     15073     15076     15075     15073     15076
     15073     15076     15077     15073     15076     15078     15073     15076     15079
     15077     15076     15078     15077     15076     15079     15078     15076     15079
     15076     15079     15080     15076     15079     15081     15076     15079     15082
     15080     15079     15081     15080     15079     15082     15081     15079     15082
     15079     15082     15083     15079     15082     15084     15079     15082     15085
     15083     15082     15084     15083     15082     15085     15084     15082     15085
     15082     15085     15086     15082     15085     15087     15082     15085     15088
     15086     15085     15087     15086     15085     15088     15087     15085     15088
     15085     15088     15089     15085     15088     15090     15085     15088     15091
     15089     15088     15090     15089     15088     15091     15090     15088     15091
     15088     15091     15092     15088     15091     15093     15088     15091     15094
     15092     15091     15093     15092     15091     15094     15093     15091     15094
     15091     15094     15095     15091     15094     15096     15091     15094     15097
     15095     15094     15096     15095     15094     15097     15096     15094     15097
     15094     15097     15098     15094     15097     15099     15094     15097     15100
     15098     15097     15099     15098     15097     15100     15099     15097     15100
     15097     15100     15101     15097     15100     15102     15097     15100     15103
     15101     15100     15102     15101     15100     15103     15102     15100     15103
     15100     15103     15104     15100     15103     15105     15100     15103     15106
     15104     15103     15105     15104     15103     15106     15105     15103     15106
     15103     15106     15107     15103     15106     15108     15103     15106     15109
     15107     15106     15108     15107     15106     15109     15108     15106     15109
     15106     15109     15110     15106     15109     15111     15106     15109     15112
     15110     15109     15111     15110     15109     15112     15111     15109     15112
     15109     15112     15113     15109     15112     15114     15109     15112     15115
     15113     15112     15114     15113     15112     15115     15114     15112     15115
     15117     15116     15120     15117     15116     15124     15117     15116     15128
     15120     15116     15124     15120     15116     15128     15124     15116     15128
     15116     15117     15118     15116     15117     15119     15116     15117     15132
     15118     15117     15119     15118     15117     15132     15119     15117     15132
     15116     15120     15121     15116     15120     15122     15116     15120     15123
     15121     15120     15122     15121     15120     15123     15122     15120     15123
     15116     15124     15125     15116     15124     15126     15116     15124     15127
     15125     15124     15126     15125     15124     15127     15126     15124     15127
     15116     15128     15129     15116     15128     15130     15116     15128     15131
     15129     15128     15130     15129     15128     15131     15130     15128     15131
     15117     15132     15133     15117     15132     15134     15117     15132     15138
     15133     15132     15134     15133     15132     15138     15134     15132     15138
     15136     15135     15137     15136     15135     15138     15136     15135     15139
     15137     15135     15138     15137     15135     15139     15138     15135     15139
     15132     15138     15135     15135     15139     15140     15139     15140     15141
     15139     15140     15142     15139     15140     15143     15141     15140     15142
     15141     15140     15143     15142     15140     15143     15140     15143     15144
     15140     15143     15145     15140     15143     15151     15144     15143     15145
     15144     15143     15151     15145     15143     15151     15143     15145     15146
     15145     15146     15147     15145     15146     15148     15147     15146     15148
     15146     15148     15149     15146     15148     15150     15146     15148     15160
     15149     15148     15150     15149     15148     15160     15150     15148     15160
     15143     15151     15152     15143     15151     15153     15143     15151     15154
     15152     15151     15153     15152     15151     15154     15153     15151     15154
     15151     15154     15155     15154     15155     15156     15154     15155     15157
     15156     15155     15157     15155     15157     15158     15155     15157     15159
     15155     15157     15207     15158     15157     15159     15158     15157     15207
     15159     15157     15207     15148     15160     15161     15148     15160     15162
     15148     15160     15163     15161     15160     15162     15161     15160     15163
     15162     15160     15163     15160     15163     15164     15160     15163     15165
     15160     15163     15166     15164     15163     15165     15164     15163     15166
     15165     15163     15166     15163     15166     15167     15163     15166     15168
     15163     15166     15169     15167     15166     15168     15167     15166     15169
     15168     15166     15169     15166     15169     15170     15166     15169     15171
     15166     15169     15172     15170     15169     15171     15170     15169     15172
     15171     15169     15172     15169     15172     15173     15169     15172     15174
     15169     15172     15175     15173     15172     15174     15173     15172     15175
     15174     15172     15175     15172     15175     15176     15172     15175     15177
     15172     15175     15178     15176     15175     15177     15176     15175     15178
     15177     15175     15178     15175     15178     15179     15175     15178     15180
     15179     15178     15180     15178     15180     15181     15178     15180     15182
     15181     15180     15182     15180     15182     15183     15180     15182     15184
     15180     15182     15185     15183     15182     15184     15183     15182     15185
     15184     15182     15185     15182     15185     15186     15182     15185     15187
     15182     15185     15188     15186     15185     15187     15186     15185     15188
     15187     15185     15188     15185     15188     15189     15185     15188     15190
     15185     15188     15191     15189     15188     15190     15189     15188     15191
     15190     15188     15191     15188     15191     15192     15188     15191     15193
     15188     15191     15194     15192     15191     15193     15192     15191     15194
     15193     15191     15194     15191     15194     15195     15191     15194     15196
     15191     15194     15197     15195     15194     15196     15195     15194     15197
     15196     15194     15197     15194     15197     15198     15194     15197     15199
     15194     15197     15200     15198     15197     15199     15198     15197     15200
     15199     15197     15200     15197     15200     15201     15197     15200     15202
     15197     15200     15203     15201     15200     15202     15201     15200     15203
     15202     15200     15203     15200     15203     15204     15200     15203     15205
     15200     15203     15206     15204     15203     15205     15204     15203     15206
     15205     15203     15206     15157     15207     15208     15157     15207     15209
     15157     15207     15210     15208     15207     15209     15208     15207     15210
     15209     15207     15210     15207     15210     15211     15207     15210     15212
     15207     15210     15213     15211     15210     15212     15211     15210     15213
     15212     15210     15213     15210     15213     15214     15210     15213     15215
     15210     15213     15216     15214     15213     15215     15214     15213     15216
     15215     15213     15216     15213     15216     15217     15213     15216     15218
     15213     15216     15219     15217     15216     15218     15217     15216     15219
     15218     15216     15219     15216     15219     15220     15216     15219     15221
     15216     15219     15222     15220     15219     15221     15220     15219     15222
     15221     15219     15222     15219     15222     15223     15219     15222     15224
     15219     15222     15225     15223     15222     15224     15223     15222     15225
     15224     15222     15225     15222     15225     15226     15222     15225     15227
     15222     15225     15228     15226     15225     15227     15226     15225     15228
     15227     15225     15228     15225     15228     15229     15225     15228     15230
     15225     15228     15231     15229     15228     15230     15229     15228     15231
     15230     15228     15231     15228     15231     15232     15228     15231     15233
     15228     15231     15234     15232     15231     15233     15232     15231     15234
     15233     15231     15234     15231     15234     15235     15231     15234     15236
     15231     15234     15237     15235     15234     15236     15235     15234     15237
     15236     15234     15237     15234     15237     15238     15234     15237     15239
     15234     15237     15240     15238     15237     15239     15238     15237     15240
     15239     15237     15240     15237     15240     15241     15237     15240     15242
     15237     15240     15243     15241     15240     15242     15241     15240     15243
     15242     15240     15243     15240     15243     15244     15240     15243     15245
     15240     15243     15246     15244     15243     15245     15244     15243     15246
     15245     15243     15246     15243     15246     15247     15243     15246     15248
     15243     15246     15249     15247     15246     15248     15247     15246     15249
     15248     15246     15249     15251     15250     15254     15251     15250     15258
     15251     15250     15262     15254     15250     15258     15254     15250     15262
     15258     15250     15262     15250     15251     15252     15250     15251     15253
     15250     15251     15266     15252     15251     15253     15252     15251     15266
     15253     15251     15266     15250     15254     15255     15250     15254     15256
     15250     15254     15257     15255     15254     15256     15255     15254     15257
     15256     15254     15257     15250     15258     15259     15250     15258     15260
     15250     15258     15261     15259     15258     15260     15259     15258     15261
     15260     15258     15261     15250     15262     15263     15250     15262     15264
     15250     15262     15265     15263     15262     15264     15263     15262     15265
     15264     15262     15265     15251     15266     15267     15251     15266     15268
     15251     15266     15272     15267     15266     15268     15267     15266     15272
     15268     15266     15272     15270     15269     15271     15270     15269     15272
     15270     15269     15273     15271     15269     15272     15271     15269     15273
     15272     15269     15273     15266     15272     15269     15269     15273     15274
     15273     15274     15275     15273     15274     15276     15273     15274     15277
     15275     15274     15276     15275     15274     15277     15276     15274     15277
     15274     15277     15278     15274     15277     15279     15274     15277     15285
     15278     15277     15279     15278     15277     15285     15279     15277     15285
     15277     15279     15280     15279     15280     15281     15279     15280     15282
     15281     15280     15282     15280     15282     15283     15280     15282     15284
     15280     15282     15294     15283     15282     15284     15283     15282     15294
     15284     15282     15294     15277     15285     15286     15277     15285     15287
     15277     15285     15288     15286     15285     15287     15286     15285     15288
     15287     15285     15288     15285     15288     15289     15288     15289     15290
     15288     15289     15291     15290     15289     15291     15289     15291     15292
     15289     15291     15293     15289     15291     15341     15292     15291     15293
     15292     15291     15341     15293     15291     15341     15282     15294     15295
     15282     15294     15296     15282     15294     15297     15295     15294     15296
     15295     15294     15297     15296     15294     15297     15294     15297     15298
     15294     15297     15299     15294     15297     15300     15298     15297     15299
     15298     15297     15300     15299     15297     15300     15297     15300     15301
     15297     15300     15302     15297     15300     15303     15301     15300     15302
     15301     15300     15303     15302     15300     15303     15300     15303     15304
     15300     15303     15305     15300     15303     15306     15304     15303     15305
     15304     15303     15306     15305     15303     15306     15303     15306     15307
     15303     15306     15308     15303     15306     15309     15307     15306     15308
     15307     15306     15309     15308     15306     15309     15306     15309     15310
     15306     15309     15311     15306     15309     15312     15310     15309     15311
     15310     15309     15312     15311     15309     15312     15309     15312     15313
     15309     15312     15314     15313     15312     15314     15312     15314     15315
     15312     15314     15316     15315     15314     15316     15314     15316     15317
     15314     15316     15318     15314     15316     15319     15317     15316     15318
     15317     15316     15319     15318     15316     15319     15316     15319     15320
     15316     15319     15321     15316     15319     15322     15320     15319     15321
     15320     15319     15322     15321     15319     15322     15319     15322     15323
     15319     15322     15324     15319     15322     15325     15323     15322     15324
     15323     15322     15325     15324     15322     15325     15322     15325     15326
     15322     15325     15327     15322     15325     15328     15326     15325     15327
     15326     15325     15328     15327     15325     15328     15325     15328     15329
     15325     15328     15330     15325     15328     15331     15329     15328     15330
     15329     15328     15331     15330     15328     15331     15328     15331     15332
     15328     15331     15333     15328     15331     15334     15332     15331     15333
     15332     15331     15334     15333     15331     15334     15331     15334     15335
     15331     15334     15336     15331     15334     15337     15335     15334     15336
     15335     15334     15337     15336     15334     15337     15334     15337     15338
     15334     15337     15339     15334     15337     15340     15338     15337     15339
     15338     15337     15340     15339     15337     15340     15291     15341     15342
     15291     15341     15343     15291     15341     15344     15342     15341     15343
     15342     15341     15344     15343     15341     15344     15341     15344     15345
     15341     15344     15346     15341     15344     15347     15345     15344     15346
     15345     15344     15347     15346     15344     15347     15344     15347     15348
     15344     15347     15349     15344     15347     15350     15348     15347     15349
     15348     15347     15350     15349     15347     15350     15347     15350     15351
     15347     15350     15352     15347     15350     15353     15351     15350     15352
     15351     15350     15353     15352     15350     15353     15350     15353     15354
     15350     15353     15355     15350     15353     15356     15354     15353     15355
     15354     15353     15356     15355     15353     15356     15353     15356     15357
     15353     15356     15358     15353     15356     15359     15357     15356     15358
     15357     15356     15359     15358     15356     15359     15356     15359     15360
     15356     15359     15361     15356     15359     15362     15360     15359     15361
     15360     15359     15362     15361     15359     15362     15359     15362     15363
     15359     15362     15364     15359     15362     15365     15363     15362     15364
     15363     15362     15365     15364     15362     15365     15362     15365     15366
     15362     15365     15367     15362     15365     15368     15366     15365     15367
     15366     15365     15368     15367     15365     15368     15365     15368     15369
     15365     15368     15370     15365     15368     15371     15369     15368     15370
     15369     15368     15371     15370     15368     15371     15368     15371     15372
     15368     15371     15373     15368     15371     15374     15372     15371     15373
     15372     15371     15374     15373     15371     15374     15371     15374     15375
     15371     15374     15376     15371     15374     15377     15375     15374     15376
     15375     15374     15377     15376     15374     15377     15374     15377     15378
     15374     15377     15379     15374     15377     15380     15378     15377     15379
     15378     15377     15380     15379     15377     15380     15377     15380     15381
     15377     15380     15382     15377     15380     15383     15381     15380     15382
     15381     15380     15383     15382     15380     15383     15385     15384     15388
     15385     15384     15392     15385     15384     15396     15388     15384     15392
     15388     15384     15396     15392     15384     15396     15384     15385     15386
     15384     15385     15387     15384     15385     15400     15386     15385     15387
     15386     15385     15400     15387     15385     15400     15384     15388     15389
     15384     15388     15390     15384     15388     15391     15389     15388     15390
     15389     15388     15391     15390     15388     15391     15384     15392     15393
     15384     15392     15394     15384     15392     15395     15393     15392     15394
     15393     15392     15395     15394     15392     15395     15384     15396     15397
     15384     15396     15398     15384     15396     15399     15397     15396     15398
     15397     15396     15399     15398     15396     15399     15385     15400     15401
     15385     15400     15402     15385     15400     15406     15401     15400     15402
     15401     15400     15406     15402     15400     15406     15404     15403     15405
     15404     15403     15406     15404     15403     15407     15405     15403     15406
     15405     15403     15407     15406     15403     15407     15400     15406     15403
     15403     15407     15408     15407     15408     15409     15407     15408     15410
     15407     15408     15411     15409     15408     15410     15409     15408     15411
     15410     15408     15411     15408     15411     15412     15408     15411     15413
     15408     15411     15419     15412     15411     15413     15412     15411     15419
     15413     15411     15419     15411     15413     15414     15413     15414     15415
     15413     15414     15416     15415     15414     15416     15414     15416     15417
     15414     15416     15418     15414     15416     15428     15417     15416     15418
     15417     15416     15428     15418     15416     15428     15411     15419     15420
     15411     15419     15421     15411     15419     15422     15420     15419     15421
     15420     15419     15422     15421     15419     15422     15419     15422     15423
     15422     15423     15424     15422     15423     15425     15424     15423     15425
     15423     15425     15426     15423     15425     15427     15423     15425     15475
     15426     15425     15427     15426     15425     15475     15427     15425     15475
     15416     15428     15429     15416     15428     15430     15416     15428     15431
     15429     15428     15430     15429     15428     15431     15430     15428     15431
     15428     15431     15432     15428     15431     15433     15428     15431     15434
     15432     15431     15433     15432     15431     15434     15433     15431     15434
     15431     15434     15435     15431     15434     15436     15431     15434     15437
     15435     15434     15436     15435     15434     15437     15436     15434     15437
     15434     15437     15438     15434     15437     15439     15434     15437     15440
     15438     15437     15439     15438     15437     15440     15439     15437     15440
     15437     15440     15441     15437     15440     15442     15437     15440     15443
     15441     15440     15442     15441     15440     15443     15442     15440     15443
     15440     15443     15444     15440     15443     15445     15440     15443     15446
     15444     15443     15445     15444     15443     15446     15445     15443     15446
     15443     15446     15447     15443     15446     15448     15447     15446     15448
     15446     15448     15449     15446     15448     15450     15449     15448     15450
     15448     15450     15451     15448     15450     15452     15448     15450     15453
     15451     15450     15452     15451     15450     15453     15452     15450     15453
     15450     15453     15454     15450     15453     15455     15450     15453     15456
     15454     15453     15455     15454     15453     15456     15455     15453     15456
     15453     15456     15457     15453     15456     15458     15453     15456     15459
     15457     15456     15458     15457     15456     15459     15458     15456     15459
     15456     15459     15460     15456     15459     15461     15456     15459     15462
     15460     15459     15461     15460     15459     15462     15461     15459     15462
     15459     15462     15463     15459     15462     15464     15459     15462     15465
     15463     15462     15464     15463     15462     15465     15464     15462     15465
     15462     15465     15466     15462     15465     15467     15462     15465     15468
     15466     15465     15467     15466     15465     15468     15467     15465     15468
     15465     15468     15469     15465     15468     15470     15465     15468     15471
     15469     15468     15470     15469     15468     15471     15470     15468     15471
     15468     15471     15472     15468     15471     15473     15468     15471     15474
     15472     15471     15473     15472     15471     15474     15473     15471     15474
     15425     15475     15476     15425     15475     15477     15425     15475     15478
     15476     15475     15477     15476     15475     15478     15477     15475     15478
     15475     15478     15479     15475     15478     15480     15475     15478     15481
     15479     15478     15480     15479     15478     15481     15480     15478     15481
     15478     15481     15482     15478     15481     15483     15478     15481     15484
     15482     15481     15483     15482     15481     15484     15483     15481     15484
     15481     15484     15485     15481     15484     15486     15481     15484     15487
     15485     15484     15486     15485     15484     15487     15486     15484     15487
     15484     15487     15488     15484     15487     15489     15484     15487     15490
     15488     15487     15489     15488     15487     15490     15489     15487     15490
     15487     15490     15491     15487     15490     15492     15487     15490     15493
     15491     15490     15492     15491     15490     15493     15492     15490     15493
     15490     15493     15494     15490     15493     15495     15490     15493     15496
     15494     15493     15495     15494     15493     15496     15495     15493     15496
     15493     15496     15497     15493     15496     15498     15493     15496     15499
     15497     15496     15498     15497     15496     15499     15498     15496     15499
     15496     15499     15500     15496     15499     15501     15496     15499     15502
     15500     15499     15501     15500     15499     15502     15501     15499     15502
     15499     15502     15503     15499     15502     15504     15499     15502     15505
     15503     15502     15504     15503     15502     15505     15504     15502     15505
     15502     15505     15506     15502     15505     15507     15502     15505     15508
     15506     15505     15507     15506     15505     15508     15507     15505     15508
     15505     15508     15509     15505     15508     15510     15505     15508     15511
     15509     15508     15510     15509     15508     15511     15510     15508     15511
     15508     15511     15512     15508     15511     15513     15508     15511     15514
     15512     15511     15513     15512     15511     15514     15513     15511     15514
     15511     15514     15515     15511     15514     15516     15511     15514     15517
     15515     15514     15516     15515     15514     15517     15516     15514     15517
     15519     15518     15522     15519     15518     15526     15519     15518     15530
     15522     15518     15526     15522     15518     15530     15526     15518     15530
     15518     15519     15520     15518     15519     15521     15518     15519     15534
     15520     15519     15521     15520     15519     15534     15521     15519     15534
     15518     15522     15523     15518     15522     15524     15518     15522     15525
     15523     15522     15524     15523     15522     15525     15524     15522     15525
     15518     15526     15527     15518     15526     15528     15518     15526     15529
     15527     15526     15528     15527     15526     15529     15528     15526     15529
     15518     15530     15531     15518     15530     15532     15518     15530     15533
     15531     15530     15532     15531     15530     15533     15532     15530     15533
     15519     15534     15535     15519     15534     15536     15519     15534     15540
     15535     15534     15536     15535     15534     15540     15536     15534     15540
     15538     15537     15539     15538     15537     15540     15538     15537     15541
     15539     15537     15540     15539     15537     15541     15540     15537     15541
     15534     15540     15537     15537     15541     15542     15541     15542     15543
     15541     15542     15544     15541     15542     15545     15543     15542     15544
     15543     15542     15545     15544     15542     15545     15542     15545     15546
     15542     15545     15547     15542     15545     15553     15546     15545     15547
     15546     15545     15553     15547     15545     15553     15545     15547     15548
     15547     15548     15549     15547     15548     15550     15549     15548     15550
     15548     15550     15551     15548     15550     15552     15548     15550     15562
     15551     15550     15552     15551     15550     15562     15552     15550     15562
     15545     15553     15554     15545     15553     15555     15545     15553     15556
     15554     15553     15555     15554     15553     15556     15555     15553     15556
     15553     15556     15557     15556     15557     15558     15556     15557     15559
     15558     15557     15559     15557     15559     15560     15557     15559     15561
     15557     15559     15609     15560     15559     15561     15560     15559     15609
     15561     15559     15609     15550     15562     15563     15550     15562     15564
     15550     15562     15565     15563     15562     15564     15563     15562     15565
     15564     15562     15565     15562     15565     15566     15562     15565     15567
     15562     15565     15568     15566     15565     15567     15566     15565     15568
     15567     15565     15568     15565     15568     15569     15565     15568     15570
     15565     15568     15571     15569     15568     15570     15569     15568     15571
     15570     15568     15571     15568     15571     15572     15568     15571     15573
     15568     15571     15574     15572     15571     15573     15572     15571     15574
     15573     15571     15574     15571     15574     15575     15571     15574     15576
     15571     15574     15577     15575     15574     15576     15575     15574     15577
     15576     15574     15577     15574     15577     15578     15574     15577     15579
     15574     15577     15580     15578     15577     15579     15578     15577     15580
     15579     15577     15580     15577     15580     15581     15577     15580     15582
     15581     15580     15582     15580     15582     15583     15580     15582     15584
     15583     15582     15584     15582     15584     15585     15582     15584     15586
     15582     15584     15587     15585     15584     15586     15585     15584     15587
     15586     15584     15587     15584     15587     15588     15584     15587     15589
     15584     15587     15590     15588     15587     15589     15588     15587     15590
     15589     15587     15590     15587     15590     15591     15587     15590     15592
     15587     15590     15593     15591     15590     15592     15591     15590     15593
     15592     15590     15593     15590     15593     15594     15590     15593     15595
     15590     15593     15596     15594     15593     15595     15594     15593     15596
     15595     15593     15596     15593     15596     15597     15593     15596     15598
     15593     15596     15599     15597     15596     15598     15597     15596     15599
     15598     15596     15599     15596     15599     15600     15596     15599     15601
     15596     15599     15602     15600     15599     15601     15600     15599     15602
     15601     15599     15602     15599     15602     15603     15599     15602     15604
     15599     15602     15605     15603     15602     15604     15603     15602     15605
     15604     15602     15605     15602     15605     15606     15602     15605     15607
     15602     15605     15608     15606     15605     15607     15606     15605     15608
     15607     15605     15608     15559     15609     15610     15559     15609     15611
     15559     15609     15612     15610     15609     15611     15610     15609     15612
     15611     15609     15612     15609     15612     15613     15609     15612     15614
     15609     15612     15615     15613     15612     15614     15613     15612     15615
     15614     15612     15615     15612     15615     15616     15612     15615     15617
     15612     15615     15618     15616     15615     15617     15616     15615     15618
     15617     15615     15618     15615     15618     15619     15615     15618     15620
     15615     15618     15621     15619     15618     15620     15619     15618     15621
     15620     15618     15621     15618     15621     15622     15618     15621     15623
     15618     15621     15624     15622     15621     15623     15622     15621     15624
     15623     15621     15624     15621     15624     15625     15621     15624     15626
     15621     15624     15627     15625     15624     15626     15625     15624     15627
     15626     15624     15627     15624     15627     15628     15624     15627     15629
     15624     15627     15630     15628     15627     15629     15628     15627     15630
     15629     15627     15630     15627     15630     15631     15627     15630     15632
     15627     15630     15633     15631     15630     15632     15631     15630     15633
     15632     15630     15633     15630     15633     15634     15630     15633     15635
     15630     15633     15636     15634     15633     15635     15634     15633     15636
     15635     15633     15636     15633     15636     15637     15633     15636     15638
     15633     15636     15639     15637     15636     15638     15637     15636     15639
     15638     15636     15639     15636     15639     15640     15636     15639     15641
     15636     15639     15642     15640     15639     15641     15640     15639     15642
     15641     15639     15642     15639     15642     15643     15639     15642     15644
     15639     15642     15645     15643     15642     15644     15643     15642     15645
     15644     15642     15645     15642     15645     15646     15642     15645     15647
     15642     15645     15648     15646     15645     15647     15646     15645     15648
     15647     15645     15648     15645     15648     15649     15645     15648     15650
     15645     15648     15651     15649     15648     15650     15649     15648     15651
     15650     15648     15651     15653     15652     15656     15653     15652     15660
     15653     15652     15664     15656     15652     15660     15656     15652     15664
     15660     15652     15664     15652     15653     15654     15652     15653     15655
     15652     15653     15668     15654     15653     15655     15654     15653     15668
     15655     15653     15668     15652     15656     15657     15652     15656     15658
     15652     15656     15659     15657     15656     15658     15657     15656     15659
     15658     15656     15659     15652     15660     15661     15652     15660     15662
     15652     15660     15663     15661     15660     15662     15661     15660     15663
     15662     15660     15663     15652     15664     15665     15652     15664     15666
     15652     15664     15667     15665     15664     15666     15665     15664     15667
     15666     15664     15667     15653     15668     15669     15653     15668     15670
     15653     15668     15674     15669     15668     15670     15669     15668     15674
     15670     15668     15674     15672     15671     15673     15672     15671     15674
     15672     15671     15675     15673     15671     15674     15673     15671     15675
     15674     15671     15675     15668     15674     15671     15671     15675     15676
     15675     15676     15677     15675     15676     15678     15675     15676     15679
     15677     15676     15678     15677     15676     15679     15678     15676     15679
     15676     15679     15680     15676     15679     15681     15676     15679     15687
     15680     15679     15681     15680     15679     15687     15681     15679     15687
     15679     15681     15682     15681     15682     15683     15681     15682     15684
     15683     15682     15684     15682     15684     15685     15682     15684     15686
     15682     15684     15696     15685     15684     15686     15685     15684     15696
     15686     15684     15696     15679     15687     15688     15679     15687     15689
     15679     15687     15690     15688     15687     15689     15688     15687     15690
     15689     15687     15690     15687     15690     15691     15690     15691     15692
     15690     15691     15693     15692     15691     15693     15691     15693     15694
     15691     15693     15695     15691     15693     15743     15694     15693     15695
     15694     15693     15743     15695     15693     15743     15684     15696     15697
     15684     15696     15698     15684     15696     15699     15697     15696     15698
     15697     15696     15699     15698     15696     15699     15696     15699     15700
     15696     15699     15701     15696     15699     15702     15700     15699     15701
     15700     15699     15702     15701     15699     15702     15699     15702     15703
     15699     15702     15704     15699     15702     15705     15703     15702     15704
     15703     15702     15705     15704     15702     15705     15702     15705     15706
     15702     15705     15707     15702     15705     15708     15706     15705     15707
     15706     15705     15708     15707     15705     15708     15705     15708     15709
     15705     15708     15710     15705     15708     15711     15709     15708     15710
     15709     15708     15711     15710     15708     15711     15708     15711     15712
     15708     15711     15713     15708     15711     15714     15712     15711     15713
     15712     15711     15714     15713     15711     15714     15711     15714     15715
     15711     15714     15716     15715     15714     15716     15714     15716     15717
     15714     15716     15718     15717     15716     15718     15716     15718     15719
     15716     15718     15720     15716     15718     15721     15719     15718     15720
     15719     15718     15721     15720     15718     15721     15718     15721     15722
     15718     15721     15723     15718     15721     15724     15722     15721     15723
     15722     15721     15724     15723     15721     15724     15721     15724     15725
     15721     15724     15726     15721     15724     15727     15725     15724     15726
     15725     15724     15727     15726     15724     15727     15724     15727     15728
     15724     15727     15729     15724     15727     15730     15728     15727     15729
     15728     15727     15730     15729     15727     15730     15727     15730     15731
     15727     15730     15732     15727     15730     15733     15731     15730     15732
     15731     15730     15733     15732     15730     15733     15730     15733     15734
     15730     15733     15735     15730     15733     15736     15734     15733     15735
     15734     15733     15736     15735     15733     15736     15733     15736     15737
     15733     15736     15738     15733     15736     15739     15737     15736     15738
     15737     15736     15739     15738     15736     15739     15736     15739     15740
     15736     15739     15741     15736     15739     15742     15740     15739     15741
     15740     15739     15742     15741     15739     15742     15693     15743     15744
     15693     15743     15745     15693     15743     15746     15744     15743     15745
     15744     15743     15746     15745     15743     15746     15743     15746     15747
     15743     15746     15748     15743     15746     15749     15747     15746     15748
     15747     15746     15749     15748     15746     15749     15746     15749     15750
     15746     15749     15751     15746     15749     15752     15750     15749     15751
     15750     15749     15752     15751     15749     15752     15749     15752     15753
     15749     15752     15754     15749     15752     15755     15753     15752     15754
     15753     15752     15755     15754     15752     15755     15752     15755     15756
     15752     15755     15757     15752     15755     15758     15756     15755     15757
     15756     15755     15758     15757     15755     15758     15755     15758     15759
     15755     15758     15760     15755     15758     15761     15759     15758     15760
     15759     15758     15761     15760     15758     15761     15758     15761     15762
     15758     15761     15763     15758     15761     15764     15762     15761     15763
     15762     15761     15764     15763     15761     15764     15761     15764     15765
     15761     15764     15766     15761     15764     15767     15765     15764     15766
     15765     15764     15767     15766     15764     15767     15764     15767     15768
     15764     15767     15769     15764     15767     15770     15768     15767     15769
     15768     15767     15770     15769     15767     15770     15767     15770     15771
     15767     15770     15772     15767     15770     15773     15771     15770     15772
     15771     15770     15773     15772     15770     15773     15770     15773     15774
     15770     15773     15775     15770     15773     15776     15774     15773     15775
     15774     15773     15776     15775     15773     15776     15773     15776     15777
     15773     15776     15778     15773     15776     15779     15777     15776     15778
     15777     15776     15779     15778     15776     15779     15776     15779     15780
     15776     15779     15781     15776     15779     15782     15780     15779     15781
     15780     15779     15782     15781     15779     15782     15779     15782     15783
     15779     15782     15784     15779     15782     15785     15783     15782     15784
     15783     15782     15785     15784     15782     15785     15787     15786     15788
     15787     15786     15789     15787     15786     15790     15788     15786     15789
     15788     15786     15790     15789     15786     15790     15786     15790     15791
     15786     15790     15792     15786     15790     15795     15791     15790     15792
     15791     15790     15795     15792     15790     15795     15790     15792     15793
     15790     15792     15794     15793     15792     15794     15790     15795     15796
     15790     15795     15797     15790     15795     15801     15796     15795     15797
     15796     15795     15801     15797     15795     15801     15799     15798     15800
     15799     15798     15801     15799     15798     15802     15800     15798     15801
     15800     15798     15802     15801     15798     15802     15795     15801     15798
     15798     15802     15803     15802     15803     15804     15802     15803     15805
     15802     15803     15806     15804     15803     15805     15804     15803     15806
     15805     15803     15806     15803     15806     15807     15803     15806     15808
     15803     15806     15814     15807     15806     15808     15807     15806     15814
     15808     15806     15814     15806     15808     15809     15808     15809     15810
     15808     15809     15811     15810     15809     15811     15809     15811     15812
     15809     15811     15813     15809     15811     15823     15812     15811     15813
     15812     15811     15823     15813     15811     15823     15806     15814     15815
     15806     15814     15816     15806     15814     15817     15815     15814     15816
     15815     15814     15817     15816     15814     15817     15814     15817     15818
     15817     15818     15819     15817     15818     15820     15819     15818     15820
     15818     15820     15821     15818     15820     15822     15818     15820     15870
     15821     15820     15822     15821     15820     15870     15822     15820     15870
     15811     15823     15824     15811     15823     15825     15811     15823     15826
     15824     15823     15825     15824     15823     15826     15825     15823     15826
     15823     15826     15827     15823     15826     15828     15823     15826     15829
     15827     15826     15828     15827     15826     15829     15828     15826     15829
     15826     15829     15830     15826     15829     15831     15826     15829     15832
     15830     15829     15831     15830     15829     15832     15831     15829     15832
     15829     15832     15833     15829     15832     15834     15829     15832     15835
     15833     15832     15834     15833     15832     15835     15834     15832     15835
     15832     15835     15836     15832     15835     15837     15832     15835     15838
     15836     15835     15837     15836     15835     15838     15837     15835     15838
     15835     15838     15839     15835     15838     15840     15835     15838     15841
     15839     15838     15840     15839     15838     15841     15840     15838     15841
     15838     15841     15842     15838     15841     15843     15842     15841     15843
     15841     15843     15844     15841     15843     15845     15844     15843     15845
     15843     15845     15846     15843     15845     15847     15843     15845     15848
     15846     15845     15847     15846     15845     15848     15847     15845     15848
     15845     15848     15849     15845     15848     15850     15845     15848     15851
     15849     15848     15850     15849     15848     15851     15850     15848     15851
     15848     15851     15852     15848     15851     15853     15848     15851     15854
     15852     15851     15853     15852     15851     15854     15853     15851     15854
     15851     15854     15855     15851     15854     15856     15851     15854     15857
     15855     15854     15856     15855     15854     15857     15856     15854     15857
     15854     15857     15858     15854     15857     15859     15854     15857     15860
     15858     15857     15859     15858     15857     15860     15859     15857     15860
     15857     15860     15861     15857     15860     15862     15857     15860     15863
     15861     15860     15862     15861     15860     15863     15862     15860     15863
     15860     15863     15864     15860     15863     15865     15860     15863     15866
     15864     15863     15865     15864     15863     15866     15865     15863     15866
     15863     15866     15867     15863     15866     15868     15863     15866     15869
     15867     15866     15868     15867     15866     15869     15868     15866     15869
     15820     15870     15871     15820     15870     15872     15820     15870     15873
     15871     15870     15872     15871     15870     15873     15872     15870     15873
     15870     15873     15874     15870     15873     15875     15870     15873     15876
     15874     15873     15875     15874     15873     15876     15875     15873     15876
     15873     15876     15877     15873     15876     15878     15873     15876     15879
     15877     15876     15878     15877     15876     15879     15878     15876     15879
     15876     15879     15880     15876     15879     15881     15876     15879     15882
     15880     15879     15881     15880     15879     15882     15881     15879     15882
     15879     15882     15883     15879     15882     15884     15879     15882     15885
     15883     15882     15884     15883     15882     15885     15884     15882     15885
     15882     15885     15886     15882     15885     15887     15882     15885     15888
     15886     15885     15887     15886     15885     15888     15887     15885     15888
     15885     15888     15889     15885     15888     15890     15885     15888     15891
     15889     15888     15890     15889     15888     15891     15890     15888     15891
     15888     15891     15892     15888     15891     15893     15888     15891     15894
     15892     15891     15893     15892     15891     15894     15893     15891     15894
     15891     15894     15895     15891     15894     15896     15891     15894     15897
     15895     15894     15896     15895     15894     15897     15896     15894     15897
     15894     15897     15898     15894     15897     15899     15894     15897     15900
     15898     15897     15899     15898     15897     15900     15899     15897     15900
     15897     15900     15901     15897     15900     15902     15897     15900     15903
     15901     15900     15902     15901     15900     15903     15902     15900     15903
     15900     15903     15904     15900     15903     15905     15900     15903     15906
     15904     15903     15905     15904     15903     15906     15905     15903     15906
     15903     15906     15907     15903     15906     15908     15903     15906     15909
     15907     15906     15908     15907     15906     15909     15908     15906     15909
     15906     15909     15910     15906     15909     15911     15906     15909     15912
     15910     15909     15911     15910     15909     15912     15911     15909     15912
     15914     15913     15917     15914     15913     15921     15914     15913     15925
     15917     15913     15921     15917     15913     15925     15921     15913     15925
     15913     15914     15915     15913     15914     15916     15913     15914     15929
     15915     15914     15916     15915     15914     15929     15916     15914     15929
     15913     15917     15918     15913     15917     15919     15913     15917     15920
     15918     15917     15919     15918     15917     15920     15919     15917     15920
     15913     15921     15922     15913     15921     15923     15913     15921     15924
     15922     15921     15923     15922     15921     15924     15923     15921     15924
     15913     15925     15926     15913     15925     15927     15913     15925     15928
     15926     15925     15927     15926     15925     15928     15927     15925     15928
     15914     15929     15930     15914     15929     15931     15914     15929     15935
     15930     15929     15931     15930     15929     15935     15931     15929     15935
     15933     15932     15934     15933     15932     15935     15933     15932     15936
     15934     15932     15935     15934     15932     15936     15935     15932     15936
     15929     15935     15932     15932     15936     15937     15936     15937     15938
     15936     15937     15939     15936     15937     15940     15938     15937     15939
     15938     15937     15940     15939     15937     15940     15937     15940     15941
     15937     15940     15942     15937     15940     15948     15941     15940     15942
     15941     15940     15948     15942     15940     15948     15940     15942     15943
     15942     15943     15944     15942     15943     15945     15944     15943     15945
     15943     15945     15946     15943     15945     15947     15943     15945     15957
     15946     15945     15947     15946     15945     15957     15947     15945     15957
     15940     15948     15949     15940     15948     15950     15940     15948     15951
     15949     15948     15950     15949     15948     15951     15950     15948     15951
     15948     15951     15952     15951     15952     15953     15951     15952     15954
     15953     15952     15954     15952     15954     15955     15952     15954     15956
     15952     15954     16004     15955     15954     15956     15955     15954     16004
     15956     15954     16004     15945     15957     15958     15945     15957     15959
     15945     15957     15960     15958     15957     15959     15958     15957     15960
     15959     15957     15960     15957     15960     15961     15957     15960     15962
     15957     15960     15963     15961     15960     15962     15961     15960     15963
     15962     15960     15963     15960     15963     15964     15960     15963     15965
     15960     15963     15966     15964     15963     15965     15964     15963     15966
     15965     15963     15966     15963     15966     15967     15963     15966     15968
     15963     15966     15969     15967     15966     15968     15967     15966     15969
     15968     15966     15969     15966     15969     15970     15966     15969     15971
     15966     15969     15972     15970     15969     15971     15970     15969     15972
     15971     15969     15972     15969     15972     15973     15969     15972     15974
     15969     15972     15975     15973     15972     15974     15973     15972     15975
     15974     15972     15975     15972     15975     15976     15972     15975     15977
     15976     15975     15977     15975     15977     15978     15975     15977     15979
     15978     15977     15979     15977     15979     15980     15977     15979     15981
     15977     15979     15982     15980     15979     15981     15980     15979     15982
     15981     15979     15982     15979     15982     15983     15979     15982     15984
     15979     15982     15985     15983     15982     15984     15983     15982     15985
     15984     15982     15985     15982     15985     15986     15982     15985     15987
     15982     15985     15988     15986     15985     15987     15986     15985     15988
     15987     15985     15988     15985     15988     15989     15985     15988     15990
     15985     15988     15991     15989     15988     15990     15989     15988     15991
     15990     15988     15991     15988     15991     15992     15988     15991     15993
     15988     15991     15994     15992     15991     15993     15992     15991     15994
     15993     15991     15994     15991     15994     15995     15991     15994     15996
     15991     15994     15997     15995     15994     15996     15995     15994     15997
     15996     15994     15997     15994     15997     15998     15994     15997     15999
     15994     15997     16000     15998     15997     15999     15998     15997     16000
     15999     15997     16000     15997     16000     16001     15997     16000     16002
     15997     16000     16003     16001     16000     16002     16001     16000     16003
     16002     16000     16003     15954     16004     16005     15954     16004     16006
     15954     16004     16007     16005     16004     16006     16005     16004     16007
     16006     16004     16007     16004     16007     16008     16004     16007     16009
     16004     16007     16010     16008     16007     16009     16008     16007     16010
     16009     16007     16010     16007     16010     16011     16007     16010     16012
     16007     16010     16013     16011     16010     16012     16011     16010     16013
     16012     16010     16013     16010     16013     16014     16010     16013     16015
     16010     16013     16016     16014     16013     16015     16014     16013     16016
     16015     16013     16016     16013     16016     16017     16013     16016     16018
     16013     16016     16019     16017     16016     16018     16017     16016     16019
     16018     16016     16019     16016     16019     16020     16016     16019     16021
     16016     16019     16022     16020     16019     16021     16020     16019     16022
     16021     16019     16022     16019     16022     16023     16019     16022     16024
     16019     16022     16025     16023     16022     16024     16023     16022     16025
     16024     16022     16025     16022     16025     16026     16022     16025     16027
     16022     16025     16028     16026     16025     16027     16026     16025     16028
     16027     16025     16028     16025     16028     16029     16025     16028     16030
     16025     16028     16031     16029     16028     16030     16029     16028     16031
     16030     16028     16031     16028     16031     16032     16028     16031     16033
     16028     16031     16034     16032     16031     16033     16032     16031     16034
     16033     16031     16034     16031     16034     16035     16031     16034     16036
     16031     16034     16037     16035     16034     16036     16035     16034     16037
     16036     16034     16037     16034     16037     16038     16034     16037     16039
     16034     16037     16040     16038     16037     16039     16038     16037     16040
     16039     16037     16040     16037     16040     16041     16037     16040     16042
     16037     16040     16043     16041     16040     16042     16041     16040     16043
     16042     16040     16043     16040     16043     16044     16040     16043     16045
     16040     16043     16046     16044     16043     16045     16044     16043     16046
     16045     16043     16046     16048     16047     16051     16048     16047     16055
     16048     16047     16059     16051     16047     16055     16051     16047     16059
     16055     16047     16059     16047     16048     16049     16047     16048     16050
     16047     16048     16063     16049     16048     16050     16049     16048     16063
     16050     16048     16063     16047     16051     16052     16047     16051     16053
     16047     16051     16054     16052     16051     16053     16052     16051     16054
     16053     16051     16054     16047     16055     16056     16047     16055     16057
     16047     16055     16058     16056     16055     16057     16056     16055     16058
     16057     16055     16058     16047     16059     16060     16047     16059     16061
     16047     16059     16062     16060     16059     16061     16060     16059     16062
     16061     16059     16062     16048     16063     16064     16048     16063     16065
     16048     16063     16069     16064     16063     16065     16064     16063     16069
     16065     16063     16069     16067     16066     16068     16067     16066     16069
     16067     16066     16070     16068     16066     16069     16068     16066     16070
     16069     16066     16070     16063     16069     16066     16066     16070     16071
     16070     16071     16072     16070     16071     16073     16070     16071     16074
     16072     16071     16073     16072     16071     16074     16073     16071     16074
     16071     16074     16075     16071     16074     16076     16071     16074     16082
     16075     16074     16076     16075     16074     16082     16076     16074     16082
     16074     16076     16077     16076     16077     16078     16076     16077     16079
     16078     16077     16079     16077     16079     16080     16077     16079     16081
     16077     16079     16091     16080     16079     16081     16080     16079     16091
     16081     16079     16091     16074     16082     16083     16074     16082     16084
     16074     16082     16085     16083     16082     16084     16083     16082     16085
     16084     16082     16085     16082     16085     16086     16085     16086     16087
     16085     16086     16088     16087     16086     16088     16086     16088     16089
     16086     16088     16090     16086     16088     16138     16089     16088     16090
     16089     16088     16138     16090     16088     16138     16079     16091     16092
     16079     16091     16093     16079     16091     16094     16092     16091     16093
     16092     16091     16094     16093     16091     16094     16091     16094     16095
     16091     16094     16096     16091     16094     16097     16095     16094     16096
     16095     16094     16097     16096     16094     16097     16094     16097     16098
     16094     16097     16099     16094     16097     16100     16098     16097     16099
     16098     16097     16100     16099     16097     16100     16097     16100     16101
     16097     16100     16102     16097     16100     16103     16101     16100     16102
     16101     16100     16103     16102     16100     16103     16100     16103     16104
     16100     16103     16105     16100     16103     16106     16104     16103     16105
     16104     16103     16106     16105     16103     16106     16103     16106     16107
     16103     16106     16108     16103     16106     16109     16107     16106     16108
     16107     16106     16109     16108     16106     16109     16106     16109     16110
     16106     16109     16111     16110     16109     16111     16109     16111     16112
     16109     16111     16113     16112     16111     16113     16111     16113     16114
     16111     16113     16115     16111     16113     16116     16114     16113     16115
     16114     16113     16116     16115     16113     16116     16113     16116     16117
     16113     16116     16118     16113     16116     16119     16117     16116     16118
     16117     16116     16119     16118     16116     16119     16116     16119     16120
     16116     16119     16121     16116     16119     16122     16120     16119     16121
     16120     16119     16122     16121     16119     16122     16119     16122     16123
     16119     16122     16124     16119     16122     16125     16123     16122     16124
     16123     16122     16125     16124     16122     16125     16122     16125     16126
     16122     16125     16127     16122     16125     16128     16126     16125     16127
     16126     16125     16128     16127     16125     16128     16125     16128     16129
     16125     16128     16130     16125     16128     16131     16129     16128     16130
     16129     16128     16131     16130     16128     16131     16128     16131     16132
     16128     16131     16133     16128     16131     16134     16132     16131     16133
     16132     16131     16134     16133     16131     16134     16131     16134     16135
     16131     16134     16136     16131     16134     16137     16135     16134     16136
     16135     16134     16137     16136     16134     16137     16088     16138     16139
     16088     16138     16140     16088     16138     16141     16139     16138     16140
     16139     16138     16141     16140     16138     16141     16138     16141     16142
     16138     16141     16143     16138     16141     16144     16142     16141     16143
     16142     16141     16144     16143     16141     16144     16141     16144     16145
     16141     16144     16146     16141     16144     16147     16145     16144     16146
     16145     16144     16147     16146     16144     16147     16144     16147     16148
     16144     16147     16149     16144     16147     16150     16148     16147     16149
     16148     16147     16150     16149     16147     16150     16147     16150     16151
     16147     16150     16152     16147     16150     16153     16151     16150     16152
     16151     16150     16153     16152     16150     16153     16150     16153     16154
     16150     16153     16155     16150     16153     16156     16154     16153     16155
     16154     16153     16156     16155     16153     16156     16153     16156     16157
     16153     16156     16158     16153     16156     16159     16157     16156     16158
     16157     16156     16159     16158     16156     16159     16156     16159     16160
     16156     16159     16161     16156     16159     16162     16160     16159     16161
     16160     16159     16162     16161     16159     16162     16159     16162     16163
     16159     16162     16164     16159     16162     16165     16163     16162     16164
     16163     16162     16165     16164     16162     16165     16162     16165     16166
     16162     16165     16167     16162     16165     16168     16166     16165     16167
     16166     16165     16168     16167     16165     16168     16165     16168     16169
     16165     16168     16170     16165     16168     16171     16169     16168     16170
     16169     16168     16171     16170     16168     16171     16168     16171     16172
     16168     16171     16173     16168     16171     16174     16172     16171     16173
     16172     16171     16174     16173     16171     16174     16171     16174     16175
     16171     16174     16176     16171     16174     16177     16175     16174     16176
     16175     16174     16177     16176     16174     16177     16174     16177     16178
     16174     16177     16179     16174     16177     16180     16178     16177     16179
     16178     16177     16180     16179     16177     16180     16182     16181     16183
     16182     16181     16184     16182     16181     16185     16183     16181     16184
     16183     16181     16185     16184     16181     16185     16181     16185     16186
     16181     16185     16187     16181     16185     16190     16186     16185     16187
     16186     16185     16190     16187     16185     16190     16185     16187     16188
     16185     16187     16189     16188     16187     16189     16185     16190     16191
     16185     16190     16192     16185     16190     16196     16191     16190     16192
     16191     16190     16196     16192     16190     16196     16194     16193     16195
     16194     16193     16196     16194     16193     16197     16195     16193     16196
     16195     16193     16197     16196     16193     16197     16190     16196     16193
     16193     16197     16198     16197     16198     16199     16197     16198     16200
     16197     16198     16201     16199     16198     16200     16199     16198     16201
     16200     16198     16201     16198     16201     16202     16198     16201     16203
     16198     16201     16209     16202     16201     16203     16202     16201     16209
     16203     16201     16209     16201     16203     16204     16203     16204     16205
     16203     16204     16206     16205     16204     16206     16204     16206     16207
     16204     16206     16208     16204     16206     16218     16207     16206     16208
     16207     16206     16218     16208     16206     16218     16201     16209     16210
     16201     16209     16211     16201     16209     16212     16210     16209     16211
     16210     16209     16212     16211     16209     16212     16209     16212     16213
     16212     16213     16214     16212     16213     16215     16214     16213     16215
     16213     16215     16216     16213     16215     16217     16213     16215     16265
     16216     16215     16217     16216     16215     16265     16217     16215     16265
     16206     16218     16219     16206     16218     16220     16206     16218     16221
     16219     16218     16220     16219     16218     16221     16220     16218     16221
     16218     16221     16222     16218     16221     16223     16218     16221     16224
     16222     16221     16223     16222     16221     16224     16223     16221     16224
     16221     16224     16225     16221     16224     16226     16221     16224     16227
     16225     16224     16226     16225     16224     16227     16226     16224     16227
     16224     16227     16228     16224     16227     16229     16224     16227     16230
     16228     16227     16229     16228     16227     16230     16229     16227     16230
     16227     16230     16231     16227     16230     16232     16227     16230     16233
     16231     16230     16232     16231     16230     16233     16232     16230     16233
     16230     16233     16234     16230     16233     16235     16230     16233     16236
     16234     16233     16235     16234     16233     16236     16235     16233     16236
     16233     16236     16237     16233     16236     16238     16237     16236     16238
     16236     16238     16239     16236     16238     16240     16239     16238     16240
     16238     16240     16241     16238     16240     16242     16238     16240     16243
     16241     16240     16242     16241     16240     16243     16242     16240     16243
     16240     16243     16244     16240     16243     16245     16240     16243     16246
     16244     16243     16245     16244     16243     16246     16245     16243     16246
     16243     16246     16247     16243     16246     16248     16243     16246     16249
     16247     16246     16248     16247     16246     16249     16248     16246     16249
     16246     16249     16250     16246     16249     16251     16246     16249     16252
     16250     16249     16251     16250     16249     16252     16251     16249     16252
     16249     16252     16253     16249     16252     16254     16249     16252     16255
     16253     16252     16254     16253     16252     16255     16254     16252     16255
     16252     16255     16256     16252     16255     16257     16252     16255     16258
     16256     16255     16257     16256     16255     16258     16257     16255     16258
     16255     16258     16259     16255     16258     16260     16255     16258     16261
     16259     16258     16260     16259     16258     16261     16260     16258     16261
     16258     16261     16262     16258     16261     16263     16258     16261     16264
     16262     16261     16263     16262     16261     16264     16263     16261     16264
     16215     16265     16266     16215     16265     16267     16215     16265     16268
     16266     16265     16267     16266     16265     16268     16267     16265     16268
     16265     16268     16269     16265     16268     16270     16265     16268     16271
     16269     16268     16270     16269     16268     16271     16270     16268     16271
     16268     16271     16272     16268     16271     16273     16268     16271     16274
     16272     16271     16273     16272     16271     16274     16273     16271     16274
     16271     16274     16275     16271     16274     16276     16271     16274     16277
     16275     16274     16276     16275     16274     16277     16276     16274     16277
     16274     16277     16278     16274     16277     16279     16274     16277     16280
     16278     16277     16279     16278     16277     16280     16279     16277     16280
     16277     16280     16281     16277     16280     16282     16277     16280     16283
     16281     16280     16282     16281     16280     16283     16282     16280     16283
     16280     16283     16284     16280     16283     16285     16280     16283     16286
     16284     16283     16285     16284     16283     16286     16285     16283     16286
     16283     16286     16287     16283     16286     16288     16283     16286     16289
     16287     16286     16288     16287     16286     16289     16288     16286     16289
     16286     16289     16290     16286     16289     16291     16286     16289     16292
     16290     16289     16291     16290     16289     16292     16291     16289     16292
     16289     16292     16293     16289     16292     16294     16289     16292     16295
     16293     16292     16294     16293     16292     16295     16294     16292     16295
     16292     16295     16296     16292     16295     16297     16292     16295     16298
     16296     16295     16297     16296     16295     16298     16297     16295     16298
     16295     16298     16299     16295     16298     16300     16295     16298     16301
     16299     16298     16300     16299     16298     16301     16300     16298     16301
     16298     16301     16302     16298     16301     16303     16298     16301     16304
     16302     16301     16303     16302     16301     16304     16303     16301     16304
     16301     16304     16305     16301     16304     16306     16301     16304     16307
     16305     16304     16306     16305     16304     16307     16306     16304     16307
     16309     16308     16312     16309     16308     16316     16309     16308     16320
     16312     16308     16316     16312     16308     16320     16316     16308     16320
     16308     16309     16310     16308     16309     16311     16308     16309     16324
     16310     16309     16311     16310     16309     16324     16311     16309     16324
     16308     16312     16313     16308     16312     16314     16308     16312     16315
     16313     16312     16314     16313     16312     16315     16314     16312     16315
     16308     16316     16317     16308     16316     16318     16308     16316     16319
     16317     16316     16318     16317     16316     16319     16318     16316     16319
     16308     16320     16321     16308     16320     16322     16308     16320     16323
     16321     16320     16322     16321     16320     16323     16322     16320     16323
     16309     16324     16325     16309     16324     16326     16309     16324     16330
     16325     16324     16326     16325     16324     16330     16326     16324     16330
     16328     16327     16329     16328     16327     16330     16328     16327     16331
     16329     16327     16330     16329     16327     16331     16330     16327     16331
     16324     16330     16327     16327     16331     16332     16331     16332     16333
     16331     16332     16334     16331     16332     16335     16333     16332     16334
     16333     16332     16335     16334     16332     16335     16332     16335     16336
     16332     16335     16337     16332     16335     16343     16336     16335     16337
     16336     16335     16343     16337     16335     16343     16335     16337     16338
     16337     16338     16339     16337     16338     16340     16339     16338     16340
     16338     16340     16341     16338     16340     16342     16338     16340     16352
     16341     16340     16342     16341     16340     16352     16342     16340     16352
     16335     16343     16344     16335     16343     16345     16335     16343     16346
     16344     16343     16345     16344     16343     16346     16345     16343     16346
     16343     16346     16347     16346     16347     16348     16346     16347     16349
     16348     16347     16349     16347     16349     16350     16347     16349     16351
     16347     16349     16399     16350     16349     16351     16350     16349     16399
     16351     16349     16399     16340     16352     16353     16340     16352     16354
     16340     16352     16355     16353     16352     16354     16353     16352     16355
     16354     16352     16355     16352     16355     16356     16352     16355     16357
     16352     16355     16358     16356     16355     16357     16356     16355     16358
     16357     16355     16358     16355     16358     16359     16355     16358     16360
     16355     16358     16361     16359     16358     16360     16359     16358     16361
     16360     16358     16361     16358     16361     16362     16358     16361     16363
     16358     16361     16364     16362     16361     16363     16362     16361     16364
     16363     16361     16364     16361     16364     16365     16361     16364     16366
     16361     16364     16367     16365     16364     16366     16365     16364     16367
     16366     16364     16367     16364     16367     16368     16364     16367     16369
     16364     16367     16370     16368     16367     16369     16368     16367     16370
     16369     16367     16370     16367     16370     16371     16367     16370     16372
     16371     16370     16372     16370     16372     16373     16370     16372     16374
     16373     16372     16374     16372     16374     16375     16372     16374     16376
     16372     16374     16377     16375     16374     16376     16375     16374     16377
     16376     16374     16377     16374     16377     16378     16374     16377     16379
     16374     16377     16380     16378     16377     16379     16378     16377     16380
     16379     16377     16380     16377     16380     16381     16377     16380     16382
     16377     16380     16383     16381     16380     16382     16381     16380     16383
     16382     16380     16383     16380     16383     16384     16380     16383     16385
     16380     16383     16386     16384     16383     16385     16384     16383     16386
     16385     16383     16386     16383     16386     16387     16383     16386     16388
     16383     16386     16389     16387     16386     16388     16387     16386     16389
     16388     16386     16389     16386     16389     16390     16386     16389     16391
     16386     16389     16392     16390     16389     16391     16390     16389     16392
     16391     16389     16392     16389     16392     16393     16389     16392     16394
     16389     16392     16395     16393     16392     16394     16393     16392     16395
     16394     16392     16395     16392     16395     16396     16392     16395     16397
     16392     16395     16398     16396     16395     16397     16396     16395     16398
     16397     16395     16398     16349     16399     16400     16349     16399     16401
     16349     16399     16402     16400     16399     16401     16400     16399     16402
     16401     16399     16402     16399     16402     16403     16399     16402     16404
     16399     16402     16405     16403     16402     16404     16403     16402     16405
     16404     16402     16405     16402     16405     16406     16402     16405     16407
     16402     16405     16408     16406     16405     16407     16406     16405     16408
     16407     16405     16408     16405     16408     16409     16405     16408     16410
     16405     16408     16411     16409     16408     16410     16409     16408     16411
     16410     16408     16411     16408     16411     16412     16408     16411     16413
     16408     16411     16414     16412     16411     16413     16412     16411     16414
     16413     16411     16414     16411     16414     16415     16411     16414     16416
     16411     16414     16417     16415     16414     16416     16415     16414     16417
     16416     16414     16417     16414     16417     16418     16414     16417     16419
     16414     16417     16420     16418     16417     16419     16418     16417     16420
     16419     16417     16420     16417     16420     16421     16417     16420     16422
     16417     16420     16423     16421     16420     16422     16421     16420     16423
     16422     16420     16423     16420     16423     16424     16420     16423     16425
     16420     16423     16426     16424     16423     16425     16424     16423     16426
     16425     16423     16426     16423     16426     16427     16423     16426     16428
     16423     16426     16429     16427     16426     16428     16427     16426     16429
     16428     16426     16429     16426     16429     16430     16426     16429     16431
     16426     16429     16432     16430     16429     16431     16430     16429     16432
     16431     16429     16432     16429     16432     16433     16429     16432     16434
     16429     16432     16435     16433     16432     16434     16433     16432     16435
     16434     16432     16435     16432     16435     16436     16432     16435     16437
     16432     16435     16438     16436     16435     16437     16436     16435     16438
     16437     16435     16438     16435     16438     16439     16435     16438     16440
     16435     16438     16441     16439     16438     16440     16439     16438     16441
     16440     16438     16441     16443     16442     16446     16443     16442     16450
     16443     16442     16454     16446     16442     16450     16446     16442     16454
     16450     16442     16454     16442     16443     16444     16442     16443     16445
     16442     16443     16458     16444     16443     16445     16444     16443     16458
     16445     16443     16458     16442     16446     16447     16442     16446     16448
     16442     16446     16449     16447     16446     16448     16447     16446     16449
     16448     16446     16449     16442     16450     16451     16442     16450     16452
     16442     16450     16453     16451     16450     16452     16451     16450     16453
     16452     16450     16453     16442     16454     16455     16442     16454     16456
     16442     16454     16457     16455     16454     16456     16455     16454     16457
     16456     16454     16457     16443     16458     16459     16443     16458     16460
     16443     16458     16464     16459     16458     16460     16459     16458     16464
     16460     16458     16464     16462     16461     16463     16462     16461     16464
     16462     16461     16465     16463     16461     16464     16463     16461     16465
     16464     16461     16465     16458     16464     16461     16461     16465     16466
     16465     16466     16467     16465     16466     16468     16465     16466     16469
     16467     16466     16468     16467     16466     16469     16468     16466     16469
     16466     16469     16470     16466     16469     16471     16466     16469     16477
     16470     16469     16471     16470     16469     16477     16471     16469     16477
     16469     16471     16472     16471     16472     16473     16471     16472     16474
     16473     16472     16474     16472     16474     16475     16472     16474     16476
     16472     16474     16486     16475     16474     16476     16475     16474     16486
     16476     16474     16486     16469     16477     16478     16469     16477     16479
     16469     16477     16480     16478     16477     16479     16478     16477     16480
     16479     16477     16480     16477     16480     16481     16480     16481     16482
     16480     16481     16483     16482     16481     16483     16481     16483     16484
     16481     16483     16485     16481     16483     16533     16484     16483     16485
     16484     16483     16533     16485     16483     16533     16474     16486     16487
     16474     16486     16488     16474     16486     16489     16487     16486     16488
     16487     16486     16489     16488     16486     16489     16486     16489     16490
     16486     16489     16491     16486     16489     16492     16490     16489     16491
     16490     16489     16492     16491     16489     16492     16489     16492     16493
     16489     16492     16494     16489     16492     16495     16493     16492     16494
     16493     16492     16495     16494     16492     16495     16492     16495     16496
     16492     16495     16497     16492     16495     16498     16496     16495     16497
     16496     16495     16498     16497     16495     16498     16495     16498     16499
     16495     16498     16500     16495     16498     16501     16499     16498     16500
     16499     16498     16501     16500     16498     16501     16498     16501     16502
     16498     16501     16503     16498     16501     16504     16502     16501     16503
     16502     16501     16504     16503     16501     16504     16501     16504     16505
     16501     16504     16506     16505     16504     16506     16504     16506     16507
     16504     16506     16508     16507     16506     16508     16506     16508     16509
     16506     16508     16510     16506     16508     16511     16509     16508     16510
     16509     16508     16511     16510     16508     16511     16508     16511     16512
     16508     16511     16513     16508     16511     16514     16512     16511     16513
     16512     16511     16514     16513     16511     16514     16511     16514     16515
     16511     16514     16516     16511     16514     16517     16515     16514     16516
     16515     16514     16517     16516     16514     16517     16514     16517     16518
     16514     16517     16519     16514     16517     16520     16518     16517     16519
     16518     16517     16520     16519     16517     16520     16517     16520     16521
     16517     16520     16522     16517     16520     16523     16521     16520     16522
     16521     16520     16523     16522     16520     16523     16520     16523     16524
     16520     16523     16525     16520     16523     16526     16524     16523     16525
     16524     16523     16526     16525     16523     16526     16523     16526     16527
     16523     16526     16528     16523     16526     16529     16527     16526     16528
     16527     16526     16529     16528     16526     16529     16526     16529     16530
     16526     16529     16531     16526     16529     16532     16530     16529     16531
     16530     16529     16532     16531     16529     16532     16483     16533     16534
     16483     16533     16535     16483     16533     16536     16534     16533     16535
     16534     16533     16536     16535     16533     16536     16533     16536     16537
     16533     16536     16538     16533     16536     16539     16537     16536     16538
     16537     16536     16539     16538     16536     16539     16536     16539     16540
     16536     16539     16541     16536     16539     16542     16540     16539     16541
     16540     16539     16542     16541     16539     16542     16539     16542     16543
     16539     16542     16544     16539     16542     16545     16543     16542     16544
     16543     16542     16545     16544     16542     16545     16542     16545     16546
     16542     16545     16547     16542     16545     16548     16546     16545     16547
     16546     16545     16548     16547     16545     16548     16545     16548     16549
     16545     16548     16550     16545     16548     16551     16549     16548     16550
     16549     16548     16551     16550     16548     16551     16548     16551     16552
     16548     16551     16553     16548     16551     16554     16552     16551     16553
     16552     16551     16554     16553     16551     16554     16551     16554     16555
     16551     16554     16556     16551     16554     16557     16555     16554     16556
     16555     16554     16557     16556     16554     16557     16554     16557     16558
     16554     16557     16559     16554     16557     16560     16558     16557     16559
     16558     16557     16560     16559     16557     16560     16557     16560     16561
     16557     16560     16562     16557     16560     16563     16561     16560     16562
     16561     16560     16563     16562     16560     16563     16560     16563     16564
     16560     16563     16565     16560     16563     16566     16564     16563     16565
     16564     16563     16566     16565     16563     16566     16563     16566     16567
     16563     16566     16568     16563     16566     16569     16567     16566     16568
     16567     16566     16569     16568     16566     16569     16566     16569     16570
     16566     16569     16571     16566     16569     16572     16570     16569     16571
     16570     16569     16572     16571     16569     16572     16569     16572     16573
     16569     16572     16574     16569     16572     16575     16573     16572     16574
     16573     16572     16575     16574     16572     16575     16577     16576     16578
     16577     16576     16579     16577     16576     16580     16578     16576     16579
     16578     16576     16580     16579     16576     16580     16576     16580     16581
     16576     16580     16582     16576     16580     16585     16581     16580     16582
     16581     16580     16585     16582     16580     16585     16580     16582     16583
     16580     16582     16584     16583     16582     16584     16580     16585     16586
     16580     16585     16587     16580     16585     16591     16586     16585     16587
     16586     16585     16591     16587     16585     16591     16589     16588     16590
     16589     16588     16591     16589     16588     16592     16590     16588     16591
     16590     16588     16592     16591     16588     16592     16585     16591     16588
     16588     16592     16593     16592     16593     16594     16592     16593     16595
     16592     16593     16596     16594     16593     16595     16594     16593     16596
     16595     16593     16596     16593     16596     16597     16593     16596     16598
     16593     16596     16604     16597     16596     16598     16597     16596     16604
     16598     16596     16604     16596     16598     16599     16598     16599     16600
     16598     16599     16601     16600     16599     16601     16599     16601     16602
     16599     16601     16603     16599     16601     16613     16602     16601     16603
     16602     16601     16613     16603     16601     16613     16596     16604     16605
     16596     16604     16606     16596     16604     16607     16605     16604     16606
     16605     16604     16607     16606     16604     16607     16604     16607     16608
     16607     16608     16609     16607     16608     16610     16609     16608     16610
     16608     16610     16611     16608     16610     16612     16608     16610     16660
     16611     16610     16612     16611     16610     16660     16612     16610     16660
     16601     16613     16614     16601     16613     16615     16601     16613     16616
     16614     16613     16615     16614     16613     16616     16615     16613     16616
     16613     16616     16617     16613     16616     16618     16613     16616     16619
     16617     16616     16618     16617     16616     16619     16618     16616     16619
     16616     16619     16620     16616     16619     16621     16616     16619     16622
     16620     16619     16621     16620     16619     16622     16621     16619     16622
     16619     16622     16623     16619     16622     16624     16619     16622     16625
     16623     16622     16624     16623     16622     16625     16624     16622     16625
     16622     16625     16626     16622     16625     16627     16622     16625     16628
     16626     16625     16627     16626     16625     16628     16627     16625     16628
     16625     16628     16629     16625     16628     16630     16625     16628     16631
     16629     16628     16630     16629     16628     16631     16630     16628     16631
     16628     16631     16632     16628     16631     16633     16632     16631     16633
     16631     16633     16634     16631     16633     16635     16634     16633     16635
     16633     16635     16636     16633     16635     16637     16633     16635     16638
     16636     16635     16637     16636     16635     16638     16637     16635     16638
     16635     16638     16639     16635     16638     16640     16635     16638     16641
     16639     16638     16640     16639     16638     16641     16640     16638     16641
     16638     16641     16642     16638     16641     16643     16638     16641     16644
     16642     16641     16643     16642     16641     16644     16643     16641     16644
     16641     16644     16645     16641     16644     16646     16641     16644     16647
     16645     16644     16646     16645     16644     16647     16646     16644     16647
     16644     16647     16648     16644     16647     16649     16644     16647     16650
     16648     16647     16649     16648     16647     16650     16649     16647     16650
     16647     16650     16651     16647     16650     16652     16647     16650     16653
     16651     16650     16652     16651     16650     16653     16652     16650     16653
     16650     16653     16654     16650     16653     16655     16650     16653     16656
     16654     16653     16655     16654     16653     16656     16655     16653     16656
     16653     16656     16657     16653     16656     16658     16653     16656     16659
     16657     16656     16658     16657     16656     16659     16658     16656     16659
     16610     16660     16661     16610     16660     16662     16610     16660     16663
     16661     16660     16662     16661     16660     16663     16662     16660     16663
     16660     16663     16664     16660     16663     16665     16660     16663     16666
     16664     16663     16665     16664     16663     16666     16665     16663     16666
     16663     16666     16667     16663     16666     16668     16663     16666     16669
     16667     16666     16668     16667     16666     16669     16668     16666     16669
     16666     16669     16670     16666     16669     16671     16666     16669     16672
     16670     16669     16671     16670     16669     16672     16671     16669     16672
     16669     16672     16673     16669     16672     16674     16669     16672     16675
     16673     16672     16674     16673     16672     16675     16674     16672     16675
     16672     16675     16676     16672     16675     16677     16672     16675     16678
     16676     16675     16677     16676     16675     16678     16677     16675     16678
     16675     16678     16679     16675     16678     16680     16675     16678     16681
     16679     16678     16680     16679     16678     16681     16680     16678     16681
     16678     16681     16682     16678     16681     16683     16678     16681     16684
     16682     16681     16683     16682     16681     16684     16683     16681     16684
     16681     16684     16685     16681     16684     16686     16681     16684     16687
     16685     16684     16686     16685     16684     16687     16686     16684     16687
     16684     16687     16688     16684     16687     16689     16684     16687     16690
     16688     16687     16689     16688     16687     16690     16689     16687     16690
     16687     16690     16691     16687     16690     16692     16687     16690     16693
     16691     16690     16692     16691     16690     16693     16692     16690     16693
     16690     16693     16694     16690     16693     16695     16690     16693     16696
     16694     16693     16695     16694     16693     16696     16695     16693     16696
     16693     16696     16697     16693     16696     16698     16693     16696     16699
     16697     16696     16698     16697     16696     16699     16698     16696     16699
     16696     16699     16700     16696     16699     16701     16696     16699     16702
     16700     16699     16701     16700     16699     16702     16701     16699     16702
     16704     16703     16707     16704     16703     16711     16704     16703     16715
     16707     16703     16711     16707     16703     16715     16711     16703     16715
     16703     16704     16705     16703     16704     16706     16703     16704     16719
     16705     16704     16706     16705     16704     16719     16706     16704     16719
     16703     16707     16708     16703     16707     16709     16703     16707     16710
     16708     16707     16709     16708     16707     16710     16709     16707     16710
     16703     16711     16712     16703     16711     16713     16703     16711     16714
     16712     16711     16713     16712     16711     16714     16713     16711     16714
     16703     16715     16716     16703     16715     16717     16703     16715     16718
     16716     16715     16717     16716     16715     16718     16717     16715     16718
     16704     16719     16720     16704     16719     16721     16704     16719     16725
     16720     16719     16721     16720     16719     16725     16721     16719     16725
     16723     16722     16724     16723     16722     16725     16723     16722     16726
     16724     16722     16725     16724     16722     16726     16725     16722     16726
     16719     16725     16722     16722     16726     16727     16726     16727     16728
     16726     16727     16729     16726     16727     16730     16728     16727     16729
     16728     16727     16730     16729     16727     16730     16727     16730     16731
     16727     16730     16732     16727     16730     16738     16731     16730     16732
     16731     16730     16738     16732     16730     16738     16730     16732     16733
     16732     16733     16734     16732     16733     16735     16734     16733     16735
     16733     16735     16736     16733     16735     16737     16733     16735     16747
     16736     16735     16737     16736     16735     16747     16737     16735     16747
     16730     16738     16739     16730     16738     16740     16730     16738     16741
     16739     16738     16740     16739     16738     16741     16740     16738     16741
     16738     16741     16742     16741     16742     16743     16741     16742     16744
     16743     16742     16744     16742     16744     16745     16742     16744     16746
     16742     16744     16794     16745     16744     16746     16745     16744     16794
     16746     16744     16794     16735     16747     16748     16735     16747     16749
     16735     16747     16750     16748     16747     16749     16748     16747     16750
     16749     16747     16750     16747     16750     16751     16747     16750     16752
     16747     16750     16753     16751     16750     16752     16751     16750     16753
     16752     16750     16753     16750     16753     16754     16750     16753     16755
     16750     16753     16756     16754     16753     16755     16754     16753     16756
     16755     16753     16756     16753     16756     16757     16753     16756     16758
     16753     16756     16759     16757     16756     16758     16757     16756     16759
     16758     16756     16759     16756     16759     16760     16756     16759     16761
     16756     16759     16762     16760     16759     16761     16760     16759     16762
     16761     16759     16762     16759     16762     16763     16759     16762     16764
     16759     16762     16765     16763     16762     16764     16763     16762     16765
     16764     16762     16765     16762     16765     16766     16762     16765     16767
     16766     16765     16767     16765     16767     16768     16765     16767     16769
     16768     16767     16769     16767     16769     16770     16767     16769     16771
     16767     16769     16772     16770     16769     16771     16770     16769     16772
     16771     16769     16772     16769     16772     16773     16769     16772     16774
     16769     16772     16775     16773     16772     16774     16773     16772     16775
     16774     16772     16775     16772     16775     16776     16772     16775     16777
     16772     16775     16778     16776     16775     16777     16776     16775     16778
     16777     16775     16778     16775     16778     16779     16775     16778     16780
     16775     16778     16781     16779     16778     16780     16779     16778     16781
     16780     16778     16781     16778     16781     16782     16778     16781     16783
     16778     16781     16784     16782     16781     16783     16782     16781     16784
     16783     16781     16784     16781     16784     16785     16781     16784     16786
     16781     16784     16787     16785     16784     16786     16785     16784     16787
     16786     16784     16787     16784     16787     16788     16784     16787     16789
     16784     16787     16790     16788     16787     16789     16788     16787     16790
     16789     16787     16790     16787     16790     16791     16787     16790     16792
     16787     16790     16793     16791     16790     16792     16791     16790     16793
     16792     16790     16793     16744     16794     16795     16744     16794     16796
     16744     16794     16797     16795     16794     16796     16795     16794     16797
     16796     16794     16797     16794     16797     16798     16794     16797     16799
     16794     16797     16800     16798     16797     16799     16798     16797     16800
     16799     16797     16800     16797     16800     16801     16797     16800     16802
     16797     16800     16803     16801     16800     16802     16801     16800     16803
     16802     16800     16803     16800     16803     16804     16800     16803     16805
     16800     16803     16806     16804     16803     16805     16804     16803     16806
     16805     16803     16806     16803     16806     16807     16803     16806     16808
     16803     16806     16809     16807     16806     16808     16807     16806     16809
     16808     16806     16809     16806     16809     16810     16806     16809     16811
     16806     16809     16812     16810     16809     16811     16810     16809     16812
     16811     16809     16812     16809     16812     16813     16809     16812     16814
     16809     16812     16815     16813     16812     16814     16813     16812     16815
     16814     16812     16815     16812     16815     16816     16812     16815     16817
     16812     16815     16818     16816     16815     16817     16816     16815     16818
     16817     16815     16818     16815     16818     16819     16815     16818     16820
     16815     16818     16821     16819     16818     16820     16819     16818     16821
     16820     16818     16821     16818     16821     16822     16818     16821     16823
     16818     16821     16824     16822     16821     16823     16822     16821     16824
     16823     16821     16824     16821     16824     16825     16821     16824     16826
     16821     16824     16827     16825     16824     16826     16825     16824     16827
     16826     16824     16827     16824     16827     16828     16824     16827     16829
     16824     16827     16830     16828     16827     16829     16828     16827     16830
     16829     16827     16830     16827     16830     16831     16827     16830     16832
     16827     16830     16833     16831     16830     16832     16831     16830     16833
     16832     16830     16833     16830     16833     16834     16830     16833     16835
     16830     16833     16836     16834     16833     16835     16834     16833     16836
     16835     16833     16836     16838     16837     16841     16838     16837     16845
     16838     16837     16849     16841     16837     16845     16841     16837     16849
     16845     16837     16849     16837     16838     16839     16837     16838     16840
     16837     16838     16853     16839     16838     16840     16839     16838     16853
     16840     16838     16853     16837     16841     16842     16837     16841     16843
     16837     16841     16844     16842     16841     16843     16842     16841     16844
     16843     16841     16844     16837     16845     16846     16837     16845     16847
     16837     16845     16848     16846     16845     16847     16846     16845     16848
     16847     16845     16848     16837     16849     16850     16837     16849     16851
     16837     16849     16852     16850     16849     16851     16850     16849     16852
     16851     16849     16852     16838     16853     16854     16838     16853     16855
     16838     16853     16859     16854     16853     16855     16854     16853     16859
     16855     16853     16859     16857     16856     16858     16857     16856     16859
     16857     16856     16860     16858     16856     16859     16858     16856     16860
     16859     16856     16860     16853     16859     16856     16856     16860     16861
     16860     16861     16862     16860     16861     16863     16860     16861     16864
     16862     16861     16863     16862     16861     16864     16863     16861     16864
     16861     16864     16865     16861     16864     16866     16861     16864     16872
     16865     16864     16866     16865     16864     16872     16866     16864     16872
     16864     16866     16867     16866     16867     16868     16866     16867     16869
     16868     16867     16869     16867     16869     16870     16867     16869     16871
     16867     16869     16881     16870     16869     16871     16870     16869     16881
     16871     16869     16881     16864     16872     16873     16864     16872     16874
     16864     16872     16875     16873     16872     16874     16873     16872     16875
     16874     16872     16875     16872     16875     16876     16875     16876     16877
     16875     16876     16878     16877     16876     16878     16876     16878     16879
     16876     16878     16880     16876     16878     16928     16879     16878     16880
     16879     16878     16928     16880     16878     16928     16869     16881     16882
     16869     16881     16883     16869     16881     16884     16882     16881     16883
     16882     16881     16884     16883     16881     16884     16881     16884     16885
     16881     16884     16886     16881     16884     16887     16885     16884     16886
     16885     16884     16887     16886     16884     16887     16884     16887     16888
     16884     16887     16889     16884     16887     16890     16888     16887     16889
     16888     16887     16890     16889     16887     16890     16887     16890     16891
     16887     16890     16892     16887     16890     16893     16891     16890     16892
     16891     16890     16893     16892     16890     16893     16890     16893     16894
     16890     16893     16895     16890     16893     16896     16894     16893     16895
     16894     16893     16896     16895     16893     16896     16893     16896     16897
     16893     16896     16898     16893     16896     16899     16897     16896     16898
     16897     16896     16899     16898     16896     16899     16896     16899     16900
     16896     16899     16901     16900     16899     16901     16899     16901     16902
     16899     16901     16903     16902     16901     16903     16901     16903     16904
     16901     16903     16905     16901     16903     16906     16904     16903     16905
     16904     16903     16906     16905     16903     16906     16903     16906     16907
     16903     16906     16908     16903     16906     16909     16907     16906     16908
     16907     16906     16909     16908     16906     16909     16906     16909     16910
     16906     16909     16911     16906     16909     16912     16910     16909     16911
     16910     16909     16912     16911     16909     16912     16909     16912     16913
     16909     16912     16914     16909     16912     16915     16913     16912     16914
     16913     16912     16915     16914     16912     16915     16912     16915     16916
     16912     16915     16917     16912     16915     16918     16916     16915     16917
     16916     16915     16918     16917     16915     16918     16915     16918     16919
     16915     16918     16920     16915     16918     16921     16919     16918     16920
     16919     16918     16921     16920     16918     16921     16918     16921     16922
     16918     16921     16923     16918     16921     16924     16922     16921     16923
     16922     16921     16924     16923     16921     16924     16921     16924     16925
     16921     16924     16926     16921     16924     16927     16925     16924     16926
     16925     16924     16927     16926     16924     16927     16878     16928     16929
     16878     16928     16930     16878     16928     16931     16929     16928     16930
     16929     16928     16931     16930     16928     16931     16928     16931     16932
     16928     16931     16933     16928     16931     16934     16932     16931     16933
     16932     16931     16934     16933     16931     16934     16931     16934     16935
     16931     16934     16936     16931     16934     16937     16935     16934     16936
     16935     16934     16937     16936     16934     16937     16934     16937     16938
     16934     16937     16939     16934     16937     16940     16938     16937     16939
     16938     16937     16940     16939     16937     16940     16937     16940     16941
     16937     16940     16942     16937     16940     16943     16941     16940     16942
     16941     16940     16943     16942     16940     16943     16940     16943     16944
     16940     16943     16945     16940     16943     16946     16944     16943     16945
     16944     16943     16946     16945     16943     16946     16943     16946     16947
     16943     16946     16948     16943     16946     16949     16947     16946     16948
     16947     16946     16949     16948     16946     16949     16946     16949     16950
     16946     16949     16951     16946     16949     16952     16950     16949     16951
     16950     16949     16952     16951     16949     16952     16949     16952     16953
     16949     16952     16954     16949     16952     16955     16953     16952     16954
     16953     16952     16955     16954     16952     16955     16952     16955     16956
     16952     16955     16957     16952     16955     16958     16956     16955     16957
     16956     16955     16958     16957     16955     16958     16955     16958     16959
     16955     16958     16960     16955     16958     16961     16959     16958     16960
     16959     16958     16961     16960     16958     16961     16958     16961     16962
     16958     16961     16963     16958     16961     16964     16962     16961     16963
     16962     16961     16964     16963     16961     16964     16961     16964     16965
     16961     16964     16966     16961     16964     16967     16965     16964     16966
     16965     16964     16967     16966     16964     16967     16964     16967     16968
     16964     16967     16969     16964     16967     16970     16968     16967     16969
     16968     16967     16970     16969     16967     16970     16972     16971     16975
     16972     16971     16979     16972     16971     16983     16975     16971     16979
     16975     16971     16983     16979     16971     16983     16971     16972     16973
     16971     16972     16974     16971     16972     16987     16973     16972     16974
     16973     16972     16987     16974     16972     16987     16971     16975     16976
     16971     16975     16977     16971     16975     16978     16976     16975     16977
     16976     16975     16978     16977     16975     16978     16971     16979     16980
     16971     16979     16981     16971     16979     16982     16980     16979     16981
     16980     16979     16982     16981     16979     16982     16971     16983     16984
     16971     16983     16985     16971     16983     16986     16984     16983     16985
     16984     16983     16986     16985     16983     16986     16972     16987     16988
     16972     16987     16989     16972     16987     16993     16988     16987     16989
     16988     16987     16993     16989     16987     16993     16991     16990     16992
     16991     16990     16993     16991     16990     16994     16992     16990     16993
     16992     16990     16994     16993     16990     16994     16987     16993     16990
     16990     16994     16995     16994     16995     16996     16994     16995     16997
     16994     16995     16998     16996     16995     16997     16996     16995     16998
     16997     16995     16998     16995     16998     16999     16995     16998     17000
     16995     16998     17006     16999     16998     17000     16999     16998     17006
     17000     16998     17006     16998     17000     17001     17000     17001     17002
     17000     17001     17003     17002     17001     17003     17001     17003     17004
     17001     17003     17005     17001     17003     17015     17004     17003     17005
     17004     17003     17015     17005     17003     17015     16998     17006     17007
     16998     17006     17008     16998     17006     17009     17007     17006     17008
     17007     17006     17009     17008     17006     17009     17006     17009     17010
     17009     17010     17011     17009     17010     17012     17011     17010     17012
     17010     17012     17013     17010     17012     17014     17010     17012     17062
     17013     17012     17014     17013     17012     17062     17014     17012     17062
     17003     17015     17016     17003     17015     17017     17003     17015     17018
     17016     17015     17017     17016     17015     17018     17017     17015     17018
     17015     17018     17019     17015     17018     17020     17015     17018     17021
     17019     17018     17020     17019     17018     17021     17020     17018     17021
     17018     17021     17022     17018     17021     17023     17018     17021     17024
     17022     17021     17023     17022     17021     17024     17023     17021     17024
     17021     17024     17025     17021     17024     17026     17021     17024     17027
     17025     17024     17026     17025     17024     17027     17026     17024     17027
     17024     17027     17028     17024     17027     17029     17024     17027     17030
     17028     17027     17029     17028     17027     17030     17029     17027     17030
     17027     17030     17031     17027     17030     17032     17027     17030     17033
     17031     17030     17032     17031     17030     17033     17032     17030     17033
     17030     17033     17034     17030     17033     17035     17034     17033     17035
     17033     17035     17036     17033     17035     17037     17036     17035     17037
     17035     17037     17038     17035     17037     17039     17035     17037     17040
     17038     17037     17039     17038     17037     17040     17039     17037     17040
     17037     17040     17041     17037     17040     17042     17037     17040     17043
     17041     17040     17042     17041     17040     17043     17042     17040     17043
     17040     17043     17044     17040     17043     17045     17040     17043     17046
     17044     17043     17045     17044     17043     17046     17045     17043     17046
     17043     17046     17047     17043     17046     17048     17043     17046     17049
     17047     17046     17048     17047     17046     17049     17048     17046     17049
     17046     17049     17050     17046     17049     17051     17046     17049     17052
     17050     17049     17051     17050     17049     17052     17051     17049     17052
     17049     17052     17053     17049     17052     17054     17049     17052     17055
     17053     17052     17054     17053     17052     17055     17054     17052     17055
     17052     17055     17056     17052     17055     17057     17052     17055     17058
     17056     17055     17057     17056     17055     17058     17057     17055     17058
     17055     17058     17059     17055     17058     17060     17055     17058     17061
     17059     17058     17060     17059     17058     17061     17060     17058     17061
     17012     17062     17063     17012     17062     17064     17012     17062     17065
     17063     17062     17064     17063     17062     17065     17064     17062     17065
     17062     17065     17066     17062     17065     17067     17062     17065     17068
     17066     17065     17067     17066     17065     17068     17067     17065     17068
     17065     17068     17069     17065     17068     17070     17065     17068     17071
     17069     17068     17070     17069     17068     17071     17070     17068     17071
     17068     17071     17072     17068     17071     17073     17068     17071     17074
     17072     17071     17073     17072     17071     17074     17073     17071     17074
     17071     17074     17075     17071     17074     17076     17071     17074     17077
     17075     17074     17076     17075     17074     17077     17076     17074     17077
     17074     17077     17078     17074     17077     17079     17074     17077     17080
     17078     17077     17079     17078     17077     17080     17079     17077     17080
     17077     17080     17081     17077     17080     17082     17077     17080     17083
     17081     17080     17082     17081     17080     17083     17082     17080     17083
     17080     17083     17084     17080     17083     17085     17080     17083     17086
     17084     17083     17085     17084     17083     17086     17085     17083     17086
     17083     17086     17087     17083     17086     17088     17083     17086     17089
     17087     17086     17088     17087     17086     17089     17088     17086     17089
     17086     17089     17090     17086     17089     17091     17086     17089     17092
     17090     17089     17091     17090     17089     17092     17091     17089     17092
     17089     17092     17093     17089     17092     17094     17089     17092     17095
     17093     17092     17094     17093     17092     17095     17094     17092     17095
     17092     17095     17096     17092     17095     17097     17092     17095     17098
     17096     17095     17097     17096     17095     17098     17097     17095     17098
     17095     17098     17099     17095     17098     17100     17095     17098     17101
     17099     17098     17100     17099     17098     17101     17100     17098     17101
     17098     17101     17102     17098     17101     17103     17098     17101     17104
     17102     17101     17103     17102     17101     17104     17103     17101     17104
     17106     17105     17109     17106     17105     17113     17106     17105     17117
     17109     17105     17113     17109     17105     17117     17113     17105     17117
     17105     17106     17107     17105     17106     17108     17105     17106     17121
     17107     17106     17108     17107     17106     17121     17108     17106     17121
     17105     17109     17110     17105     17109     17111     17105     17109     17112
     17110     17109     17111     17110     17109     17112     17111     17109     17112
     17105     17113     17114     17105     17113     17115     17105     17113     17116
     17114     17113     17115     17114     17113     17116     17115     17113     17116
     17105     17117     17118     17105     17117     17119     17105     17117     17120
     17118     17117     17119     17118     17117     17120     17119     17117     17120
     17106     17121     17122     17106     17121     17123     17106     17121     17127
     17122     17121     17123     17122     17121     17127     17123     17121     17127
     17125     17124     17126     17125     17124     17127     17125     17124     17128
     17126     17124     17127     17126     17124     17128     17127     17124     17128
     17121     17127     17124     17124     17128     17129     17128     17129     17130
     17128     17129     17131     17128     17129     17132     17130     17129     17131
     17130     17129     17132     17131     17129     17132     17129     17132     17133
     17129     17132     17134     17129     17132     17140     17133     17132     17134
     17133     17132     17140     17134     17132     17140     17132     17134     17135
     17134     17135     17136     17134     17135     17137     17136     17135     17137
     17135     17137     17138     17135     17137     17139     17135     17137     17149
     17138     17137     17139     17138     17137     17149     17139     17137     17149
     17132     17140     17141     17132     17140     17142     17132     17140     17143
     17141     17140     17142     17141     17140     17143     17142     17140     17143
     17140     17143     17144     17143     17144     17145     17143     17144     17146
     17145     17144     17146     17144     17146     17147     17144     17146     17148
     17144     17146     17196     17147     17146     17148     17147     17146     17196
     17148     17146     17196     17137     17149     17150     17137     17149     17151
     17137     17149     17152     17150     17149     17151     17150     17149     17152
     17151     17149     17152     17149     17152     17153     17149     17152     17154
     17149     17152     17155     17153     17152     17154     17153     17152     17155
     17154     17152     17155     17152     17155     17156     17152     17155     17157
     17152     17155     17158     17156     17155     17157     17156     17155     17158
     17157     17155     17158     17155     17158     17159     17155     17158     17160
     17155     17158     17161     17159     17158     17160     17159     17158     17161
     17160     17158     17161     17158     17161     17162     17158     17161     17163
     17158     17161     17164     17162     17161     17163     17162     17161     17164
     17163     17161     17164     17161     17164     17165     17161     17164     17166
     17161     17164     17167     17165     17164     17166     17165     17164     17167
     17166     17164     17167     17164     17167     17168     17164     17167     17169
     17168     17167     17169     17167     17169     17170     17167     17169     17171
     17170     17169     17171     17169     17171     17172     17169     17171     17173
     17169     17171     17174     17172     17171     17173     17172     17171     17174
     17173     17171     17174     17171     17174     17175     17171     17174     17176
     17171     17174     17177     17175     17174     17176     17175     17174     17177
     17176     17174     17177     17174     17177     17178     17174     17177     17179
     17174     17177     17180     17178     17177     17179     17178     17177     17180
     17179     17177     17180     17177     17180     17181     17177     17180     17182
     17177     17180     17183     17181     17180     17182     17181     17180     17183
     17182     17180     17183     17180     17183     17184     17180     17183     17185
     17180     17183     17186     17184     17183     17185     17184     17183     17186
     17185     17183     17186     17183     17186     17187     17183     17186     17188
     17183     17186     17189     17187     17186     17188     17187     17186     17189
     17188     17186     17189     17186     17189     17190     17186     17189     17191
     17186     17189     17192     17190     17189     17191     17190     17189     17192
     17191     17189     17192     17189     17192     17193     17189     17192     17194
     17189     17192     17195     17193     17192     17194     17193     17192     17195
     17194     17192     17195     17146     17196     17197     17146     17196     17198
     17146     17196     17199     17197     17196     17198     17197     17196     17199
     17198     17196     17199     17196     17199     17200     17196     17199     17201
     17196     17199     17202     17200     17199     17201     17200     17199     17202
     17201     17199     17202     17199     17202     17203     17199     17202     17204
     17199     17202     17205     17203     17202     17204     17203     17202     17205
     17204     17202     17205     17202     17205     17206     17202     17205     17207
     17202     17205     17208     17206     17205     17207     17206     17205     17208
     17207     17205     17208     17205     17208     17209     17205     17208     17210
     17205     17208     17211     17209     17208     17210     17209     17208     17211
     17210     17208     17211     17208     17211     17212     17208     17211     17213
     17208     17211     17214     17212     17211     17213     17212     17211     17214
     17213     17211     17214     17211     17214     17215     17211     17214     17216
     17211     17214     17217     17215     17214     17216     17215     17214     17217
     17216     17214     17217     17214     17217     17218     17214     17217     17219
     17214     17217     17220     17218     17217     17219     17218     17217     17220
     17219     17217     17220     17217     17220     17221     17217     17220     17222
     17217     17220     17223     17221     17220     17222     17221     17220     17223
     17222     17220     17223     17220     17223     17224     17220     17223     17225
     17220     17223     17226     17224     17223     17225     17224     17223     17226
     17225     17223     17226     17223     17226     17227     17223     17226     17228
     17223     17226     17229     17227     17226     17228     17227     17226     17229
     17228     17226     17229     17226     17229     17230     17226     17229     17231
     17226     17229     17232     17230     17229     17231     17230     17229     17232
     17231     17229     17232     17229     17232     17233     17229     17232     17234
     17229     17232     17235     17233     17232     17234     17233     17232     17235
     17234     17232     17235     17232     17235     17236     17232     17235     17237
     17232     17235     17238     17236     17235     17237     17236     17235     17238
     17237     17235     17238     17240     17239     17241     17243     17242     17244
     17246     17245     17247     17249     17248     17250     17252     17251     17253
     17255     17254     17256     17258     17257     17259     17261     17260     17262
     17264     17263     17265     17267     17266     17268     17270     17269     17271
     17273     17272     17274     17276     17275     17277     17279     17278     17280
     17282     17281     17283     17285     17284     17286     17288     17287     17289
     17291     17290     17292     17294     17293     17295     17297     17296     17298
     17300     17299     17301     17303     17302     17304     17306     17305     17307
     17309     17308     17310     17312     17311     17313     17315     17314     17316
     17318     17317     17319     17321     17320     17322     17324     17323     17325
     17327     17326     17328     17330     17329     17331     17333     17332     17334
     17336     17335     17337     17339     17338     17340     17342     17341     17343
     17345     17344     17346     17348     17347     17349     17351     17350     17352
     17354     17353     17355     17357     17356     17358     17360     17359     17361
     17363     17362     17364     17366     17365     17367     17369     17368     17370
     17372     17371     17373     17375     17374     17376     17378     17377     17379
     17381     17380     17382     17384     17383     17385     17387     17386     17388
     17390     17389     17391     17393     17392     17394     17396     17395     17397
     17399     17398     17400     17402     17401     17403     17405     17404     17406
     17408     17407     17409     17411     17410     17412     17414     17413     17415
     17417     17416     17418     17420     17419     17421     17423     17422     17424
     17426     17425     17427     17429     17428     17430     17432     17431     17433
     17435     17434     17436     17438     17437     17439     17441     17440     17442
     17444     17443     17445     17447     17446     17448     17450     17449     17451
     17453     17452     17454     17456     17455     17457     17459     17458     17460
     17462     17461     17463     17465     17464     17466     17468     17467     17469
     17471     17470     17472     17474     17473     17475     17477     17476     17478
     17480     17479     17481     17483     17482     17484     17486     17485     17487
     17489     17488     17490     17492     17491     17493     17495     17494     17496
     17498     17497     17499     17501     17500     17502     17504     17503     17505
     17507     17506     17508     17510     17509     17511     17513     17512     17514
     17516     17515     17517     17519     17518     17520     17522     17521     17523
     17525     17524     17526     17528     17527     17529     17531     17530     17532
     17534     17533     17535     17537     17536     17538     17540     17539     17541
     17543     17542     17544     17546     17545     17547     17549     17548     17550
     17552     17551     17553     17555     17554     17556     17558     17557     17559
     17561     17560     17562     17564     17563     17565     17567     17566     17568
     17570     17569     17571     17573     17572     17574     17576     17575     17577
     17579     17578     17580     17582     17581     17583     17585     17584     17586
     17588     17587     17589     17591     17590     17592     17594     17593     17595
     17597     17596     17598     17600     17599     17601     17603     17602     17604
     17606     17605     17607     17609     17608     17610     17612     17611     17613
     17615     17614     17616     17618     17617     17619     17621     17620     17622
     17624     17623     17625     17627     17626     17628     17630     17629     17631
     17633     17632     17634     17636     17635     17637     17639     17638     17640
     17642     17641     17643     17645     17644     17646     17648     17647     17649
     17651     17650     17652     17654     17653     17655     17657     17656     17658
     17660     17659     17661     17663     17662     17664     17666     17665     17667
     17669     17668     17670     17672     17671     17673     17675     17674     17676
     17678     17677     17679     17681     17680     17682     17684     17683     17685
     17687     17686     17688     17690     17689     17691     17693     17692     17694
     17696     17695     17697     17699     17698     17700     17702     17701     17703
     17705     17704     17706     17708     17707     17709     17711     17710     17712
     17714     17713     17715     17717     17716     17718     17720     17719     17721
     17723     17722     17724     17726     17725     17727     17729     17728     17730
     17732     17731     17733     17735     17734     17736     17738     17737     17739
     17741     17740     17742     17744     17743     17745     17747     17746     17748
     17750     17749     17751     17753     17752     17754     17756     17755     17757
     17759     17758     17760     17762     17761     17763     17765     17764     17766
     17768     17767     17769     17771     17770     17772     17774     17773     17775
     17777     17776     17778     17780     17779     17781     17783     17782     17784
     17786     17785     17787     17789     17788     17790     17792     17791     17793
     17795     17794     17796     17798     17797     17799     17801     17800     17802
     17804     17803     17805     17807     17806     17808     17810     17809     17811
     17813     17812     17814     17816     17815     17817     17819     17818     17820
     17822     17821     17823     17825     17824     17826     17828     17827     17829
     17831     17830     17832     17834     17833     17835     17837     17836     17838
     17840     17839     17841     17843     17842     17844     17846     17845     17847
     17849     17848     17850     17852     17851     17853     17855     17854     17856
     17858     17857     17859     17861     17860     17862     17864     17863     17865
     17867     17866     17868     17870     17869     17871     17873     17872     17874
     17876     17875     17877     17879     17878     17880     17882     17881     17883
     17885     17884     17886     17888     17887     17889     17891     17890     17892
     17894     17893     17895     17897     17896     17898     17900     17899     17901
     17903     17902     17904     17906     17905     17907     17909     17908     17910
     17912     17911     17913     17915     17914     17916     17918     17917     17919
     17921     17920     17922     17924     17923     17925     17927     17926     17928
     17930     17929     17931     17933     17932     17934     17936     17935     17937
     17939     17938     17940     17942     17941     17943     17945     17944     17946
     17948     17947     17949     17951     17950     17952     17954     17953     17955
     17957     17956     17958     17960     17959     17961     17963     17962     17964
     17966     17965     17967     17969     17968     17970     17972     17971     17973
     17975     17974     17976     17978     17977     17979     17981     17980     17982
     17984     17983     17985     17987     17986     17988     17990     17989     17991
     17993     17992     17994     17996     17995     17997     17999     17998     18000
     18002     18001     18003     18005     18004     18006     18008     18007     18009
     18011     18010     18012     18014     18013     18015     18017     18016     18018
     18020     18019     18021     18023     18022     18024     18026     18025     18027
     18029     18028     18030     18032     18031     18033     18035     18034     18036
     18038     18037     18039     18041     18040     18042     18044     18043     18045
     18047     18046     18048     18050     18049     18051     18053     18052     18054
     18056     18055     18057     18059     18058     18060     18062     18061     18063
     18065     18064     18066     18068     18067     18069     18071     18070     18072
     18074     18073     18075     18077     18076     18078     18080     18079     18081
     18083     18082     18084     18086     18085     18087     18089     18088     18090
     18092     18091     18093     18095     18094     18096     18098     18097     18099
     18101     18100     18102     18104     18103     18105     18107     18106     18108
     18110     18109     18111     18113     18112     18114     18116     18115     18117
     18119     18118     18120     18122     18121     18123     18125     18124     18126
     18128     18127     18129     18131     18130     18132     18134     18133     18135
     18137     18136     18138     18140     18139     18141     18143     18142     18144
     18146     18145     18147     18149     18148     18150     18152     18151     18153
     18155     18154     18156     18158     18157     18159     18161     18160     18162
     18164     18163     18165     18167     18166     18168     18170     18169     18171
     18173     18172     18174     18176     18175     18177     18179     18178     18180
     18182     18181     18183     18185     18184     18186     18188     18187     18189
     18191     18190     18192     18194     18193     18195     18197     18196     18198
     18200     18199     18201     18203     18202     18204     18206     18205     18207
     18209     18208     18210     18212     18211     18213     18215     18214     18216
     18218     18217     18219     18221     18220     18222     18224     18223     18225
     18227     18226     18228     18230     18229     18231     18233     18232     18234
     18236     18235     18237     18239     18238     18240     18242     18241     18243
     18245     18244     18246     18248     18247     18249     18251     18250     18252
     18254     18253     18255     18257     18256     18258     18260     18259     18261
     18263     18262     18264     18266     18265     18267     18269     18268     18270
     18272     18271     18273     18275     18274     18276     18278     18277     18279
     18281     18280     18282     18284     18283     18285     18287     18286     18288
     18290     18289     18291     18293     18292     18294     18296     18295     18297
     18299     18298     18300     18302     18301     18303     18305     18304     18306
     18308     18307     18309     18311     18310     18312     18314     18313     18315
     18317     18316     18318     18320     18319     18321     18323     18322     18324
     18326     18325     18327     18329     18328     18330     18332     18331     18333
     18335     18334     18336     18338     18337     18339     18341     18340     18342
     18344     18343     18345     18347     18346     18348     18350     18349     18351
     18353     18352     18354     18356     18355     18357     18359     18358     18360
     18362     18361     18363     18365     18364     18366     18368     18367     18369
     18371     18370     18372     18374     18373     18375     18377     18376     18378
     18380     18379     18381     18383     18382     18384     18386     18385     18387
     18389     18388     18390     18392     18391     18393     18395     18394     18396
     18398     18397     18399     18401     18400     18402     18404     18403     18405
     18407     18406     18408     18410     18409     18411     18413     18412     18414
     18416     18415     18417     18419     18418     18420     18422     18421     18423
     18425     18424     18426     18428     18427     18429     18431     18430     18432
     18434     18433     18435     18437     18436     18438     18440     18439     18441
     18443     18442     18444     18446     18445     18447     18449     18448     18450
     18452     18451     18453     18455     18454     18456     18458     18457     18459
     18461     18460     18462     18464     18463     18465     18467     18466     18468
     18470     18469     18471     18473     18472     18474     18476     18475     18477
     18479     18478     18480     18482     18481     18483     18485     18484     18486
     18488     18487     18489     18491     18490     18492     18494     18493     18495
     18497     18496     18498     18500     18499     18501     18503     18502     18504
     18506     18505     18507     18509     18508     18510     18512     18511     18513
     18515     18514     18516     18518     18517     18519     18521     18520     18522
     18524     18523     18525     18527     18526     18528     18530     18529     18531
     18533     18532     18534     18536     18535     18537     18539     18538     18540
     18542     18541     18543     18545     18544     18546     18548     18547     18549
     18551     18550     18552     18554     18553     18555     18557     18556     18558
     18560     18559     18561     18563     18562     18564     18566     18565     18567
     18569     18568     18570     18572     18571     18573     18575     18574     18576
     18578     18577     18579     18581     18580     18582     18584     18583     18585
     18587     18586     18588     18590     18589     18591     18593     18592     18594
     18596     18595     18597     18599     18598     18600     18602     18601     18603
     18605     18604     18606     18608     18607     18609     18611     18610     18612
     18614     18613     18615     18617     18616     18618     18620     18619     18621
     18623     18622     18624     18626     18625     18627     18629     18628     18630
     18632     18631     18633     18635     18634     18636     18638     18637     18639
     18641     18640     18642     18644     18643     18645     18647     18646     18648
     18650     18649     18651     18653     18652     18654     18656     18655     18657
     18659     18658     18660     18662     18661     18663     18665     18664     18666
     18668     18667     18669     18671     18670     18672     18674     18673     18675
     18677     18676     18678     18680     18679     18681     18683     18682     18684
     18686     18685     18687     18689     18688     18690     18692     18691     18693
     18695     18694     18696     18698     18697     18699     18701     18700     18702
     18704     18703     18705     18707     18706     18708     18710     18709     18711
     18713     18712     18714     18716     18715     18717     18719     18718     18720
     18722     18721     18723     18725     18724     18726     18728     18727     18729
     18731     18730     18732     18734     18733     18735     18737     18736     18738
     18740     18739     18741     18743     18742     18744     18746     18745     18747
     18749     18748     18750     18752     18751     18753     18755     18754     18756
     18758     18757     18759     18761     18760     18762     18764     18763     18765
     18767     18766     18768     18770     18769     18771     18773     18772     18774
     18776     18775     18777     18779     18778     18780     18782     18781     18783
     18785     18784     18786     18788     18787     18789     18791     18790     18792
     18794     18793     18795     18797     18796     18798     18800     18799     18801
     18803     18802     18804     18806     18805     18807     18809     18808     18810
     18812     18811     18813     18815     18814     18816     18818     18817     18819
     18821     18820     18822     18824     18823     18825     18827     18826     18828
     18830     18829     18831     18833     18832     18834     18836     18835     18837
     18839     18838     18840     18842     18841     18843     18845     18844     18846
     18848     18847     18849     18851     18850     18852     18854     18853     18855
     18857     18856     18858     18860     18859     18861     18863     18862     18864
     18866     18865     18867     18869     18868     18870     18872     18871     18873
     18875     18874     18876     18878     18877     18879     18881     18880     18882
     18884     18883     18885     18887     18886     18888     18890     18889     18891
     18893     18892     18894     18896     18895     18897     18899     18898     18900
     18902     18901     18903     18905     18904     18906     18908     18907     18909
     18911     18910     18912     18914     18913     18915     18917     18916     18918
     18920     18919     18921     18923     18922     18924     18926     18925     18927
     18929     18928     18930     18932     18931     18933     18935     18934     18936
     18938     18937     18939     18941     18940     18942     18944     18943     18945
     18947     18946     18948     18950     18949     18951     18953     18952     18954
     18956     18955     18957     18959     18958     18960     18962     18961     18963
     18965     18964     18966     18968     18967     18969     18971     18970     18972
     18974     18973     18975     18977     18976     18978     18980     18979     18981
     18983     18982     18984     18986     18985     18987     18989     18988     18990
     18992     18991     18993     18995     18994     18996     18998     18997     18999
     19001     19000     19002     19004     19003     19005     19007     19006     19008
     19010     19009     19011     19013     19012     19014     19016     19015     19017
     19019     19018     19020     19022     19021     19023     19025     19024     19026
     19028     19027     19029     19031     19030     19032     19034     19033     19035
     19037     19036     19038     19040     19039     19041     19043     19042     19044
     19046     19045     19047     19049     19048     19050     19052     19051     19053
     19055     19054     19056     19058     19057     19059     19061     19060     19062
     19064     19063     19065     19067     19066     19068     19070     19069     19071
     19073     19072     19074     19076     19075     19077     19079     19078     19080
     19082     19081     19083     19085     19084     19086     19088     19087     19089
     19091     19090     19092     19094     19093     19095     19097     19096     19098
     19100     19099     19101     19103     19102     19104     19106     19105     19107
     19109     19108     19110     19112     19111     19113     19115     19114     19116
     19118     19117     19119     19121     19120     19122     19124     19123     19125
     19127     19126     19128     19130     19129     19131     19133     19132     19134
     19136     19135     19137     19139     19138     19140     19142     19141     19143
     19145     19144     19146     19148     19147     19149     19151     19150     19152
     19154     19153     19155     19157     19156     19158     19160     19159     19161
     19163     19162     19164     19166     19165     19167     19169     19168     19170
     19172     19171     19173     19175     19174     19176     19178     19177     19179
     19181     19180     19182     19184     19183     19185     19187     19186     19188
     19190     19189     19191     19193     19192     19194     19196     19195     19197
     19199     19198     19200     19202     19201     19203     19205     19204     19206
     19208     19207     19209     19211     19210     19212     19214     19213     19215
     19217     19216     19218     19220     19219     19221     19223     19222     19224
     19226     19225     19227     19229     19228     19230     19232     19231     19233
     19235     19234     19236     19238     19237     19239     19241     19240     19242
     19244     19243     19245     19247     19246     19248     19250     19249     19251
     19253     19252     19254     19256     19255     19257     19259     19258     19260
     19262     19261     19263     19265     19264     19266     19268     19267     19269
     19271     19270     19272     19274     19273     19275     19277     19276     19278
     19280     19279     19281     19283     19282     19284     19286     19285     19287
     19289     19288     19290     19292     19291     19293     19295     19294     19296
     19298     19297     19299     19301     19300     19302     19304     19303     19305
     19307     19306     19308     19310     19309     19311     19313     19312     19314
     19316     19315     19317     19319     19318     19320     19322     19321     19323
     19325     19324     19326     19328     19327     19329     19331     19330     19332
     19334     19333     19335     19337     19336     19338     19340     19339     19341
     19343     19342     19344     19346     19345     19347     19349     19348     19350
     19352     19351     19353     19355     19354     19356     19358     19357     19359
     19361     19360     19362     19364     19363     19365     19367     19366     19368
     19370     19369     19371     19373     19372     19374     19376     19375     19377
     19379     19378     19380     19382     19381     19383     19385     19384     19386
     19388     19387     19389     19391     19390     19392     19394     19393     19395
     19397     19396     19398     19400     19399     19401     19403     19402     19404
     19406     19405     19407     19409     19408     19410     19412     19411     19413
     19415     19414     19416     19418     19417     19419     19421     19420     19422
     19424     19423     19425     19427     19426     19428     19430     19429     19431
     19433     19432     19434     19436     19435     19437     19439     19438     19440
     19442     19441     19443     19445     19444     19446     19448     19447     19449
     19451     19450     19452     19454     19453     19455     19457     19456     19458
     19460     19459     19461     19463     19462     19464     19466     19465     19467
     19469     19468     19470     19472     19471     19473     19475     19474     19476
     19478     19477     19479     19481     19480     19482     19484     19483     19485
     19487     19486     19488     19490     19489     19491     19493     19492     19494
     19496     19495     19497     19499     19498     19500     19502     19501     19503
     19505     19504     19506     19508     19507     19509     19511     19510     19512
     19514     19513     19515     19517     19516     19518     19520     19519     19521
     19523     19522     19524     19526     19525     19527     19529     19528     19530
     19532     19531     19533     19535     19534     19536     19538     19537     19539
     19541     19540     19542     19544     19543     19545     19547     19546     19548
     19550     19549     19551     19553     19552     19554     19556     19555     19557
     19559     19558     19560     19562     19561     19563     19565     19564     19566
     19568     19567     19569     19571     19570     19572     19574     19573     19575
     19577     19576     19578     19580     19579     19581     19583     19582     19584
     19586     19585     19587     19589     19588     19590     19592     19591     19593
     19595     19594     19596     19598     19597     19599     19601     19600     19602
     19604     19603     19605     19607     19606     19608     19610     19609     19611
     19613     19612     19614     19616     19615     19617     19619     19618     19620
     19622     19621     19623     19625     19624     19626     19628     19627     19629
     19631     19630     19632     19634     19633     19635     19637     19636     19638
     19640     19639     19641     19643     19642     19644     19646     19645     19647
     19649     19648     19650     19652     19651     19653     19655     19654     19656
     19658     19657     19659     19661     19660     19662     19664     19663     19665
     19667     19666     19668     19670     19669     19671     19673     19672     19674
     19676     19675     19677     19679     19678     19680     19682     19681     19683
     19685     19684     19686     19688     19687     19689     19691     19690     19692
     19694     19693     19695     19697     19696     19698     19700     19699     19701
     19703     19702     19704     19706     19705     19707     19709     19708     19710
     19712     19711     19713     19715     19714     19716     19718     19717     19719
     19721     19720     19722     19724     19723     19725     19727     19726     19728
     19730     19729     19731     19733     19732     19734     19736     19735     19737
     19739     19738     19740     19742     19741     19743     19745     19744     19746
     19748     19747     19749     19751     19750     19752     19754     19753     19755
     19757     19756     19758     19760     19759     19761     19763     19762     19764
     19766     19765     19767     19769     19768     19770     19772     19771     19773
     19775     19774     19776     19778     19777     19779     19781     19780     19782
     19784     19783     19785     19787     19786     19788     19790     19789     19791
     19793     19792     19794     19796     19795     19797     19799     19798     19800
     19802     19801     19803     19805     19804     19806     19808     19807     19809
     19811     19810     19812     19814     19813     19815     19817     19816     19818
     19820     19819     19821     19823     19822     19824     19826     19825     19827
     19829     19828     19830     19832     19831     19833     19835     19834     19836
     19838     19837     19839     19841     19840     19842     19844     19843     19845
     19847     19846     19848     19850     19849     19851     19853     19852     19854
     19856     19855     19857     19859     19858     19860     19862     19861     19863
     19865     19864     19866     19868     19867     19869     19871     19870     19872
     19874     19873     19875     19877     19876     19878     19880     19879     19881
     19883     19882     19884     19886     19885     19887     19889     19888     19890
     19892     19891     19893     19895     19894     19896     19898     19897     19899
     19901     19900     19902     19904     19903     19905     19907     19906     19908
     19910     19909     19911     19913     19912     19914     19916     19915     19917
     19919     19918     19920     19922     19921     19923     19925     19924     19926
     19928     19927     19929     19931     19930     19932     19934     19933     19935
     19937     19936     19938     19940     19939     19941     19943     19942     19944
     19946     19945     19947     19949     19948     19950     19952     19951     19953
     19955     19954     19956     19958     19957     19959     19961     19960     19962
     19964     19963     19965     19967     19966     19968     19970     19969     19971
     19973     19972     19974     19976     19975     19977     19979     19978     19980
     19982     19981     19983     19985     19984     19986     19988     19987     19989
     19991     19990     19992     19994     19993     19995     19997     19996     19998
     20000     19999     20001     20003     20002     20004     20006     20005     20007
     20009     20008     20010     20012     20011     20013     20015     20014     20016
     20018     20017     20019     20021     20020     20022     20024     20023     20025
     20027     20026     20028     20030     20029     20031     20033     20032     20034
     20036     20035     20037     20039     20038     20040     20042     20041     20043
     20045     20044     20046     20048     20047     20049     20051     20050     20052
     20054     20053     20055     20057     20056     20058     20060     20059     20061
     20063     20062     20064     20066     20065     20067     20069     20068     20070
     20072     20071     20073     20075     20074     20076     20078     20077     20079
     20081     20080     20082     20084     20083     20085     20087     20086     20088
     20090     20089     20091     20093     20092     20094     20096     20095     20097
     20099     20098     20100     20102     20101     20103     20105     20104     20106
     20108     20107     20109     20111     20110     20112     20114     20113     20115
     20117     20116     20118     20120     20119     20121     20123     20122     20124
     20126     20125     20127     20129     20128     20130     20132     20131     20133
     20135     20134     20136     20138     20137     20139     20141     20140     20142
     20144     20143     20145     20147     20146     20148     20150     20149     20151
     20153     20152     20154     20156     20155     20157     20159     20158     20160
     20162     20161     20163     20165     20164     20166     20168     20167     20169
     20171     20170     20172     20174     20173     20175     20177     20176     20178
     20180     20179     20181     20183     20182     20184     20186     20185     20187
     20189     20188     20190     20192     20191     20193     20195     20194     20196
     20198     20197     20199     20201     20200     20202     20204     20203     20205
     20207     20206     20208     20210     20209     20211     20213     20212     20214
     20216     20215     20217     20219     20218     20220     20222     20221     20223
     20225     20224     20226     20228     20227     20229     20231     20230     20232
     20234     20233     20235     20237     20236     20238     20240     20239     20241
     20243     20242     20244     20246     20245     20247     20249     20248     20250
     20252     20251     20253     20255     20254     20256     20258     20257     20259
     20261     20260     20262     20264     20263     20265     20267     20266     20268
     20270     20269     20271     20273     20272     20274     20276     20275     20277
     20279     20278     20280     20282     20281     20283     20285     20284     20286
     20288     20287     20289     20291     20290     20292     20294     20293     20295
     20297     20296     20298     20300     20299     20301     20303     20302     20304
     20306     20305     20307     20309     20308     20310     20312     20311     20313
     20315     20314     20316     20318     20317     20319     20321     20320     20322
     20324     20323     20325     20327     20326     20328     20330     20329     20331
     20333     20332     20334     20336     20335     20337     20339     20338     20340
     20342     20341     20343     20345     20344     20346     20348     20347     20349
     20351     20350     20352     20354     20353     20355     20357     20356     20358
     20360     20359     20361     20363     20362     20364     20366     20365     20367
     20369     20368     20370     20372     20371     20373     20375     20374     20376
     20378     20377     20379     20381     20380     20382     20384     20383     20385
     20387     20386     20388     20390     20389     20391     20393     20392     20394
     20396     20395     20397     20399     20398     20400     20402     20401     20403
     20405     20404     20406     20408     20407     20409     20411     20410     20412
     20414     20413     20415     20417     20416     20418     20420     20419     20421
     20423     20422     20424     20426     20425     20427     20429     20428     20430
     20432     20431     20433     20435     20434     20436     20438     20437     20439
     20441     20440     20442     20444     20443     20445     20447     20446     20448
     20450     20449     20451     20453     20452     20454     20456     20455     20457
     20459     20458     20460     20462     20461     20463     20465     20464     20466
     20468     20467     20469     20471     20470     20472     20474     20473     20475
     20477     20476     20478     20480     20479     20481     20483     20482     20484
     20486     20485     20487     20489     20488     20490     20492     20491     20493
     20495     20494     20496     20498     20497     20499     20501     20500     20502
     20504     20503     20505     20507     20506     20508     20510     20509     20511
     20513     20512     20514     20516     20515     20517     20519     20518     20520
     20522     20521     20523     20525     20524     20526     20528     20527     20529
     20531     20530     20532     20534     20533     20535     20537     20536     20538
     20540     20539     20541     20543     20542     20544     20546     20545     20547
     20549     20548     20550     20552     20551     20553     20555     20554     20556
     20558     20557     20559     20561     20560     20562     20564     20563     20565
     20567     20566     20568     20570     20569     20571     20573     20572     20574
     20576     20575     20577     20579     20578     20580     20582     20581     20583
     20585     20584     20586     20588     20587     20589     20591     20590     20592
     20594     20593     20595     20597     20596     20598     20600     20599     20601
     20603     20602     20604     20606     20605     20607     20609     20608     20610
     20612     20611     20613     20615     20614     20616     20618     20617     20619
     20621     20620     20622     20624     20623     20625     20627     20626     20628
     20630     20629     20631     20633     20632     20634     20636     20635     20637
     20639     20638     20640     20642     20641     20643     20645     20644     20646
     20648     20647     20649     20651     20650     20652     20654     20653     20655
     20657     20656     20658     20660     20659     20661     20663     20662     20664
     20666     20665     20667     20669     20668     20670     20672     20671     20673
     20675     20674     20676     20678     20677     20679     20681     20680     20682
     20684     20683     20685     20687     20686     20688     20690     20689     20691
     20693     20692     20694     20696     20695     20697     20699     20698     20700
     20702     20701     20703     20705     20704     20706     20708     20707     20709
     20711     20710     20712     20714     20713     20715     20717     20716     20718
     20720     20719     20721     20723     20722     20724     20726     20725     20727
     20729     20728     20730     20732     20731     20733     20735     20734     20736
     20738     20737     20739     20741     20740     20742     20744     20743     20745
     20747     20746     20748     20750     20749     20751     20753     20752     20754
     20756     20755     20757     20759     20758     20760     20762     20761     20763
     20765     20764     20766     20768     20767     20769     20771     20770     20772
     20774     20773     20775     20777     20776     20778     20780     20779     20781
     20783     20782     20784     20786     20785     20787     20789     20788     20790
     20792     20791     20793     20795     20794     20796     20798     20797     20799
     20801     20800     20802     20804     20803     20805     20807     20806     20808
     20810     20809     20811     20813     20812     20814     20816     20815     20817
     20819     20818     20820     20822     20821     20823     20825     20824     20826
     20828     20827     20829     20831     20830     20832     20834     20833     20835
     20837     20836     20838     20840     20839     20841     20843     20842     20844
     20846     20845     20847     20849     20848     20850     20852     20851     20853
     20855     20854     20856     20858     20857     20859     20861     20860     20862
     20864     20863     20865     20867     20866     20868     20870     20869     20871
     20873     20872     20874     20876     20875     20877     20879     20878     20880
     20882     20881     20883     20885     20884     20886     20888     20887     20889
     20891     20890     20892     20894     20893     20895     20897     20896     20898
     20900     20899     20901     20903     20902     20904     20906     20905     20907
     20909     20908     20910     20912     20911     20913     20915     20914     20916
     20918     20917     20919     20921     20920     20922     20924     20923     20925
     20927     20926     20928     20930     20929     20931     20933     20932     20934
     20936     20935     20937     20939     20938     20940     20942     20941     20943
     20945     20944     20946     20948     20947     20949     20951     20950     20952
     20954     20953     20955     20957     20956     20958     20960     20959     20961
     20963     20962     20964     20966     20965     20967     20969     20968     20970
     20972     20971     20973     20975     20974     20976     20978     20977     20979
     20981     20980     20982     20984     20983     20985     20987     20986     20988
     20990     20989     20991     20993     20992     20994     20996     20995     20997
     20999     20998     21000     21002     21001     21003     21005     21004     21006
     21008     21007     21009     21011     21010     21012     21014     21013     21015
     21017     21016     21018     21020     21019     21021     21023     21022     21024
     21026     21025     21027     21029     21028     21030     21032     21031     21033
     21035     21034     21036     21038     21037     21039     21041     21040     21042
     21044     21043     21045     21047     21046     21048     21050     21049     21051
     21053     21052     21054     21056     21055     21057     21059     21058     21060
     21062     21061     21063     21065     21064     21066     21068     21067     21069
     21071     21070     21072     21074     21073     21075     21077     21076     21078
     21080     21079     21081     21083     21082     21084     21086     21085     21087
     21089     21088     21090     21092     21091     21093     21095     21094     21096
     21098     21097     21099     21101     21100     21102     21104     21103     21105
     21107     21106     21108     21110     21109     21111     21113     21112     21114
     21116     21115     21117     21119     21118     21120     21122     21121     21123
     21125     21124     21126     21128     21127     21129     21131     21130     21132
     21134     21133     21135     21137     21136     21138     21140     21139     21141
     21143     21142     21144     21146     21145     21147     21149     21148     21150
     21152     21151     21153     21155     21154     21156     21158     21157     21159
     21161     21160     21162     21164     21163     21165     21167     21166     21168
     21170     21169     21171     21173     21172     21174     21176     21175     21177
     21179     21178     21180     21182     21181     21183     21185     21184     21186
     21188     21187     21189     21191     21190     21192     21194     21193     21195
     21197     21196     21198     21200     21199     21201     21203     21202     21204
     21206     21205     21207     21209     21208     21210     21212     21211     21213
     21215     21214     21216     21218     21217     21219     21221     21220     21222
     21224     21223     21225     21227     21226     21228     21230     21229     21231
     21233     21232     21234     21236     21235     21237     21239     21238     21240
     21242     21241     21243     21245     21244     21246     21248     21247     21249
     21251     21250     21252     21254     21253     21255     21257     21256     21258
     21260     21259     21261     21263     21262     21264     21266     21265     21267
     21269     21268     21270     21272     21271     21273     21275     21274     21276
     21278     21277     21279     21281     21280     21282     21284     21283     21285
     21287     21286     21288     21290     21289     21291     21293     21292     21294
     21296     21295     21297     21299     21298     21300     21302     21301     21303
     21305     21304     21306     21308     21307     21309     21311     21310     21312
     21314     21313     21315     21317     21316     21318     21320     21319     21321
     21323     21322     21324     21326     21325     21327     21329     21328     21330
     21332     21331     21333     21335     21334     21336     21338     21337     21339
     21341     21340     21342     21344     21343     21345     21347     21346     21348
     21350     21349     21351     21353     21352     21354     21356     21355     21357
     21359     21358     21360     21362     21361     21363     21365     21364     21366
     21368     21367     21369     21371     21370     21372     21374     21373     21375
     21377     21376     21378     21380     21379     21381     21383     21382     21384
     21386     21385     21387     21389     21388     21390     21392     21391     21393
     21395     21394     21396     21398     21397     21399     21401     21400     21402
     21404     21403     21405     21407     21406     21408     21410     21409     21411
     21413     21412     21414     21416     21415     21417     21419     21418     21420
     21422     21421     21423     21425     21424     21426     21428     21427     21429
     21431     21430     21432     21434     21433     21435     21437     21436     21438
     21440     21439     21441     21443     21442     21444     21446     21445     21447
     21449     21448     21450     21452     21451     21453     21455     21454     21456
     21458     21457     21459     21461     21460     21462     21464     21463     21465
     21467     21466     21468     21470     21469     21471     21473     21472     21474
     21476     21475     21477     21479     21478     21480     21482     21481     21483
     21485     21484     21486     21488     21487     21489     21491     21490     21492
     21494     21493     21495     21497     21496     21498     21500     21499     21501
     21503     21502     21504     21506     21505     21507     21509     21508     21510
     21512     21511     21513     21515     21514     21516     21518     21517     21519
     21521     21520     21522     21524     21523     21525     21527     21526     21528
     21530     21529     21531     21533     21532     21534     21536     21535     21537
     21539     21538     21540     21542     21541     21543     21545     21544     21546
     21548     21547     21549     21551     21550     21552     21554     21553     21555
     21557     21556     21558     21560     21559     21561     21563     21562     21564
     21566     21565     21567     21569     21568     21570     21572     21571     21573
     21575     21574     21576     21578     21577     21579     21581     21580     21582
     21584     21583     21585     21587     21586     21588     21590     21589     21591
     21593     21592     21594     21596     21595     21597     21599     21598     21600
     21602     21601     21603     21605     21604     21606     21608     21607     21609
     21611     21610     21612     21614     21613     21615     21617     21616     21618
     21620     21619     21621     21623     21622     21624     21626     21625     21627
     21629     21628     21630     21632     21631     21633     21635     21634     21636
     21638     21637     21639     21641     21640     21642     21644     21643     21645
     21647     21646     21648     21650     21649     21651     21653     21652     21654
     21656     21655     21657     21659     21658     21660     21662     21661     21663
     21665     21664     21666     21668     21667     21669     21671     21670     21672
     21674     21673     21675     21677     21676     21678     21680     21679     21681
     21683     21682     21684     21686     21685     21687     21689     21688     21690
     21692     21691     21693     21695     21694     21696     21698     21697     21699
     21701     21700     21702     21704     21703     21705     21707     21706     21708
     21710     21709     21711     21713     21712     21714     21716     21715     21717
     21719     21718     21720     21722     21721     21723     21725     21724     21726
     21728     21727     21729     21731     21730     21732     21734     21733     21735
     21737     21736     21738     21740     21739     21741     21743     21742     21744
     21746     21745     21747     21749     21748     21750     21752     21751     21753
     21755     21754     21756     21758     21757     21759     21761     21760     21762
     21764     21763     21765     21767     21766     21768     21770     21769     21771
     21773     21772     21774     21776     21775     21777     21779     21778     21780
     21782     21781     21783     21785     21784     21786     21788     21787     21789
     21791     21790     21792     21794     21793     21795     21797     21796     21798
     21800     21799     21801     21803     21802     21804     21806     21805     21807
     21809     21808     21810     21812     21811     21813     21815     21814     21816
     21818     21817     21819     21821     21820     21822     21824     21823     21825
     21827     21826     21828     21830     21829     21831     21833     21832     21834
     21836     21835     21837     21839     21838     21840     21842     21841     21843
     21845     21844     21846     21848     21847     21849     21851     21850     21852
     21854     21853     21855     21857     21856     21858     21860     21859     21861
     21863     21862     21864     21866     21865     21867     21869     21868     21870
     21872     21871     21873     21875     21874     21876     21878     21877     21879
     21881     21880     21882     21884     21883     21885     21887     21886     21888
     21890     21889     21891     21893     21892     21894     21896     21895     21897
     21899     21898     21900     21902     21901     21903     21905     21904     21906
     21908     21907     21909     21911     21910     21912     21914     21913     21915
     21917     21916     21918     21920     21919     21921     21923     21922     21924
     21926     21925     21927     21929     21928     21930     21932     21931     21933
     21935     21934     21936     21938     21937     21939     21941     21940     21942
     21944     21943     21945     21947     21946     21948     21950     21949     21951
     21953     21952     21954     21956     21955     21957     21959     21958     21960
     21962     21961     21963     21965     21964     21966     21968     21967     21969
     21971     21970     21972     21974     21973     21975     21977     21976     21978
     21980     21979     21981     21983     21982     21984     21986     21985     21987
     21989     21988     21990     21992     21991     21993     21995     21994     21996
     21998     21997     21999     22001     22000     22002     22004     22003     22005
     22007     22006     22008     22010     22009     22011     22013     22012     22014
     22016     22015     22017     22019     22018     22020     22022     22021     22023
     22025     22024     22026     22028     22027     22029     22031     22030     22032
     22034     22033     22035     22037     22036     22038     22040     22039     22041
     22043     22042     22044     22046     22045     22047     22049     22048     22050
     22052     22051     22053     22055     22054     22056     22058     22057     22059
     22061     22060     22062     22064     22063     22065     22067     22066     22068
     22070     22069     22071     22073     22072     22074     22076     22075     22077
     22079     22078     22080     22082     22081     22083     22085     22084     22086
     22088     22087     22089     22091     22090     22092     22094     22093     22095
     22097     22096     22098     22100     22099     22101     22103     22102     22104
     22106     22105     22107     22109     22108     22110     22112     22111     22113
     22115     22114     22116     22118     22117     22119     22121     22120     22122
     22124     22123     22125     22127     22126     22128     22130     22129     22131
     22133     22132     22134     22136     22135     22137     22139     22138     22140
     22142     22141     22143     22145     22144     22146     22148     22147     22149
     22151     22150     22152     22154     22153     22155     22157     22156     22158
     22160     22159     22161     22163     22162     22164     22166     22165     22167
     22169     22168     22170     22172     22171     22173     22175     22174     22176
     22178     22177     22179     22181     22180     22182     22184     22183     22185
     22187     22186     22188     22190     22189     22191     22193     22192     22194
     22196     22195     22197     22199     22198     22200     22202     22201     22203
     22205     22204     22206     22208     22207     22209     22211     22210     22212
     22214     22213     22215     22217     22216     22218     22220     22219     22221
     22223     22222     22224     22226     22225     22227     22229     22228     22230
     22232     22231     22233     22235     22234     22236     22238     22237     22239
     22241     22240     22242     22244     22243     22245     22247     22246     22248
     22250     22249     22251     22253     22252     22254     22256     22255     22257
     22259     22258     22260     22262     22261     22263     22265     22264     22266
     22268     22267     22269     22271     22270     22272     22274     22273     22275
     22277     22276     22278     22280     22279     22281     22283     22282     22284
     22286     22285     22287     22289     22288     22290     22292     22291     22293
     22295     22294     22296     22298     22297     22299     22301     22300     22302
     22304     22303     22305     22307     22306     22308     22310     22309     22311
     22313     22312     22314     22316     22315     22317     22319     22318     22320
     22322     22321     22323     22325     22324     22326     22328     22327     22329
     22331     22330     22332     22334     22333     22335     22337     22336     22338
     22340     22339     22341     22343     22342     22344     22346     22345     22347
     22349     22348     22350     22352     22351     22353     22355     22354     22356
     22358     22357     22359     22361     22360     22362     22364     22363     22365
     22367     22366     22368     22370     22369     22371     22373     22372     22374
     22376     22375     22377     22379     22378     22380     22382     22381     22383
     22385     22384     22386     22388     22387     22389     22391     22390     22392
     22394     22393     22395     22397     22396     22398     22400     22399     22401
     22403     22402     22404     22406     22405     22407     22409     22408     22410
     22412     22411     22413     22415     22414     22416     22418     22417     22419
     22421     22420     22422     22424     22423     22425     22427     22426     22428
     22430     22429     22431     22433     22432     22434     22436     22435     22437
     22439     22438     22440     22442     22441     22443     22445     22444     22446
     22448     22447     22449     22451     22450     22452     22454     22453     22455
     22457     22456     22458     22460     22459     22461     22463     22462     22464
     22466     22465     22467     22469     22468     22470     22472     22471     22473
     22475     22474     22476     22478     22477     22479     22481     22480     22482
     22484     22483     22485     22487     22486     22488     22490     22489     22491
     22493     22492     22494     22496     22495     22497     22499     22498     22500
     22502     22501     22503     22505     22504     22506     22508     22507     22509
     22511     22510     22512     22514     22513     22515     22517     22516     22518
     22520     22519     22521     22523     22522     22524     22526     22525     22527
     22529     22528     22530     22532     22531     22533     22535     22534     22536
     22538     22537     22539     22541     22540     22542     22544     22543     22545
     22547     22546     22548     22550     22549     22551     22553     22552     22554
     22556     22555     22557     22559     22558     22560     22562     22561     22563
     22565     22564     22566     22568     22567     22569     22571     22570     22572
     22574     22573     22575     22577     22576     22578     22580     22579     22581
     22583     22582     22584     22586     22585     22587     22589     22588     22590
     22592     22591     22593     22595     22594     22596     22598     22597     22599
     22601     22600     22602     22604     22603     22605     22607     22606     22608
     22610     22609     22611     22613     22612     22614     22616     22615     22617
     22619     22618     22620     22622     22621     22623     22625     22624     22626
     22628     22627     22629     22631     22630     22632     22634     22633     22635
     22637     22636     22638     22640     22639     22641     22643     22642     22644
     22646     22645     22647     22649     22648     22650     22652     22651     22653
     22655     22654     22656     22658     22657     22659     22661     22660     22662
     22664     22663     22665     22667     22666     22668     22670     22669     22671
     22673     22672     22674     22676     22675     22677     22679     22678     22680
     22682     22681     22683     22685     22684     22686     22688     22687     22689
     22691     22690     22692     22694     22693     22695     22697     22696     22698
     22700     22699     22701     22703     22702     22704     22706     22705     22707
     22709     22708     22710     22712     22711     22713     22715     22714     22716
     22718     22717     22719     22721     22720     22722     22724     22723     22725
     22727     22726     22728     22730     22729     22731     22733     22732     22734
     22736     22735     22737     22739     22738     22740     22742     22741     22743
     22745     22744     22746     22748     22747     22749     22751     22750     22752
     22754     22753     22755     22757     22756     22758     22760     22759     22761
     22763     22762     22764     22766     22765     22767     22769     22768     22770
     22772     22771     22773     22775     22774     22776     22778     22777     22779
     22781     22780     22782     22784     22783     22785     22787     22786     22788
     22790     22789     22791     22793     22792     22794     22796     22795     22797
     22799     22798     22800     22802     22801     22803     22805     22804     22806
     22808     22807     22809     22811     22810     22812     22814     22813     22815
     22817     22816     22818     22820     22819     22821     22823     22822     22824
     22826     22825     22827     22829     22828     22830     22832     22831     22833
     22835     22834     22836     22838     22837     22839     22841     22840     22842
     22844     22843     22845     22847     22846     22848     22850     22849     22851
     22853     22852     22854     22856     22855     22857     22859     22858     22860
     22862     22861     22863     22865     22864     22866     22868     22867     22869
     22871     22870     22872     22874     22873     22875     22877     22876     22878
     22880     22879     22881     22883     22882     22884     22886     22885     22887
     22889     22888     22890     22892     22891     22893     22895     22894     22896
     22898     22897     22899     22901     22900     22902     22904     22903     22905
     22907     22906     22908     22910     22909     22911     22913     22912     22914
     22916     22915     22917     22919     22918     22920     22922     22921     22923
     22925     22924     22926     22928     22927     22929     22931     22930     22932
     22934     22933     22935     22937     22936     22938     22940     22939     22941
     22943     22942     22944     22946     22945     22947     22949     22948     22950
     22952     22951     22953     22955     22954     22956     22958     22957     22959
     22961     22960     22962     22964     22963     22965     22967     22966     22968
     22970     22969     22971     22973     22972     22974     22976     22975     22977
     22979     22978     22980     22982     22981     22983     22985     22984     22986
     22988     22987     22989     22991     22990     22992     22994     22993     22995
     22997     22996     22998     23000     22999     23001     23003     23002     23004
     23006     23005     23007     23009     23008     23010     23012     23011     23013
     23015     23014     23016     23018     23017     23019     23021     23020     23022
     23024     23023     23025     23027     23026     23028     23030     23029     23031
     23033     23032     23034     23036     23035     23037     23039     23038     23040
     23042     23041     23043     23045     23044     23046     23048     23047     23049
     23051     23050     23052     23054     23053     23055     23057     23056     23058
     23060     23059     23061     23063     23062     23064     23066     23065     23067
     23069     23068     23070     23072     23071     23073     23075     23074     23076
     23078     23077     23079     23081     23080     23082     23084     23083     23085
     23087     23086     23088     23090     23089     23091     23093     23092     23094
     23096     23095     23097     23099     23098     23100     23102     23101     23103
     23105     23104     23106     23108     23107     23109     23111     23110     23112
     23114     23113     23115     23117     23116     23118     23120     23119     23121
     23123     23122     23124     23126     23125     23127     23129     23128     23130
     23132     23131     23133     23135     23134     23136     23138     23137     23139
     23141     23140     23142     23144     23143     23145     23147     23146     23148
     23150     23149     23151     23153     23152     23154     23156     23155     23157
     23159     23158     23160     23162     23161     23163     23165     23164     23166
     23168     23167     23169     23171     23170     23172     23174     23173     23175
     23177     23176     23178     23180     23179     23181     23183     23182     23184
     23186     23185     23187     23189     23188     23190     23192     23191     23193
     23195     23194     23196     23198     23197     23199     23201     23200     23202
     23204     23203     23205     23207     23206     23208     23210     23209     23211
     23213     23212     23214     23216     23215     23217     23219     23218     23220
     23222     23221     23223     23225     23224     23226     23228     23227     23229
     23231     23230     23232     23234     23233     23235     23237     23236     23238
     23240     23239     23241     23243     23242     23244     23246     23245     23247
     23249     23248     23250     23252     23251     23253     23255     23254     23256
     23258     23257     23259     23261     23260     23262     23264     23263     23265
     23267     23266     23268     23270     23269     23271     23273     23272     23274
     23276     23275     23277     23279     23278     23280     23282     23281     23283
     23285     23284     23286     23288     23287     23289     23291     23290     23292
     23294     23293     23295     23297     23296     23298     23300     23299     23301
     23303     23302     23304     23306     23305     23307     23309     23308     23310
     23312     23311     23313     23315     23314     23316     23318     23317     23319
     23321     23320     23322     23324     23323     23325     23327     23326     23328
     23330     23329     23331     23333     23332     23334     23336     23335     23337
     23339     23338     23340     23342     23341     23343     23345     23344     23346
     23348     23347     23349     23351     23350     23352     23354     23353     23355
     23357     23356     23358     23360     23359     23361     23363     23362     23364
     23366     23365     23367     23369     23368     23370     23372     23371     23373
     23375     23374     23376     23378     23377     23379     23381     23380     23382
     23384     23383     23385     23387     23386     23388     23390     23389     23391
     23393     23392     23394     23396     23395     23397     23399     23398     23400
     23402     23401     23403     23405     23404     23406     23408     23407     23409
     23411     23410     23412     23414     23413     23415     23417     23416     23418
     23420     23419     23421     23423     23422     23424     23426     23425     23427
     23429     23428     23430     23432     23431     23433     23435     23434     23436
     23438     23437     23439     23441     23440     23442     23444     23443     23445
     23447     23446     23448     23450     23449     23451     23453     23452     23454
     23456     23455     23457     23459     23458     23460     23462     23461     23463
     23465     23464     23466     23468     23467     23469     23471     23470     23472
     23474     23473     23475     23477     23476     23478     23480     23479     23481
     23483     23482     23484     23486     23485     23487     23489     23488     23490
     23492     23491     23493     23495     23494     23496     23498     23497     23499
     23501     23500     23502     23504     23503     23505     23507     23506     23508
     23510     23509     23511     23513     23512     23514     23516     23515     23517
     23519     23518     23520     23522     23521     23523     23525     23524     23526
     23528     23527     23529     23531     23530     23532     23534     23533     23535
     23537     23536     23538     23540     23539     23541     23543     23542     23544
     23546     23545     23547     23549     23548     23550     23552     23551     23553
     23555     23554     23556     23558     23557     23559     23561     23560     23562
     23564     23563     23565     23567     23566     23568     23570     23569     23571
     23573     23572     23574     23576     23575     23577     23579     23578     23580
     23582     23581     23583     23585     23584     23586     23588     23587     23589
     23591     23590     23592     23594     23593     23595     23597     23596     23598
     23600     23599     23601     23603     23602     23604     23606     23605     23607
     23609     23608     23610     23612     23611     23613     23615     23614     23616
     23618     23617     23619     23621     23620     23622     23624     23623     23625
     23627     23626     23628     23630     23629     23631     23633     23632     23634
     23636     23635     23637     23639     23638     23640     23642     23641     23643
     23645     23644     23646     23648     23647     23649     23651     23650     23652
     23654     23653     23655     23657     23656     23658     23660     23659     23661
     23663     23662     23664     23666     23665     23667     23669     23668     23670
     23672     23671     23673     23675     23674     23676     23678     23677     23679
     23681     23680     23682     23684     23683     23685     23687     23686     23688
     23690     23689     23691     23693     23692     23694     23696     23695     23697
     23699     23698     23700     23702     23701     23703     23705     23704     23706
     23708     23707     23709     23711     23710     23712     23714     23713     23715
     23717     23716     23718     23720     23719     23721     23723     23722     23724
     23726     23725     23727     23729     23728     23730     23732     23731     23733
     23735     23734     23736     23738     23737     23739     23741     23740     23742
     23744     23743     23745     23747     23746     23748     23750     23749     23751
     23753     23752     23754     23756     23755     23757     23759     23758     23760
     23762     23761     23763     23765     23764     23766     23768     23767     23769
     23771     23770     23772     23774     23773     23775     23777     23776     23778
     23780     23779     23781     23783     23782     23784     23786     23785     23787
     23789     23788     23790     23792     23791     23793     23795     23794     23796
     23798     23797     23799     23801     23800     23802     23804     23803     23805
     23807     23806     23808     23810     23809     23811     23813     23812     23814
     23816     23815     23817     23819     23818     23820     23822     23821     23823
     23825     23824     23826     23828     23827     23829     23831     23830     23832
     23834     23833     23835     23837     23836     23838     23840     23839     23841
     23843     23842     23844     23846     23845     23847     23849     23848     23850
     23852     23851     23853     23855     23854     23856     23858     23857     23859
     23861     23860     23862     23864     23863     23865     23867     23866     23868
     23870     23869     23871     23873     23872     23874     23876     23875     23877
     23879     23878     23880     23882     23881     23883     23885     23884     23886
     23888     23887     23889     23891     23890     23892     23894     23893     23895
     23897     23896     23898     23900     23899     23901     23903     23902     23904
     23906     23905     23907     23909     23908     23910     23912     23911     23913
     23915     23914     23916     23918     23917     23919     23921     23920     23922
     23924     23923     23925     23927     23926     23928     23930     23929     23931
     23933     23932     23934     23936     23935     23937     23939     23938     23940
     23942     23941     23943     23945     23944     23946     23948     23947     23949
     23951     23950     23952     23954     23953     23955     23957     23956     23958
     23960     23959     23961     23963     23962     23964     23966     23965     23967
     23969     23968     23970     23972     23971     23973     23975     23974     23976
     23978     23977     23979     23981     23980     23982     23984     23983     23985
     23987     23986     23988     23990     23989     23991     23993     23992     23994
     23996     23995     23997     23999     23998     24000     24002     24001     24003
     24005     24004     24006     24008     24007     24009     24011     24010     24012
     24014     24013     24015     24017     24016     24018     24020     24019     24021
     24023     24022     24024     24026     24025     24027     24029     24028     24030
     24032     24031     24033     24035     24034     24036     24038     24037     24039
     24041     24040     24042     24044     24043     24045     24047     24046     24048
     24050     24049     24051     24053     24052     24054     24056     24055     24057
     24059     24058     24060     24062     24061     24063     24065     24064     24066
     24068     24067     24069     24071     24070     24072     24074     24073     24075
     24077     24076     24078     24080     24079     24081     24083     24082     24084
     24086     24085     24087     24089     24088     24090     24092     24091     24093
     24095     24094     24096     24098     24097     24099     24101     24100     24102
     24104     24103     24105     24107     24106     24108     24110     24109     24111
     24113     24112     24114     24116     24115     24117     24119     24118     24120
     24122     24121     24123     24125     24124     24126     24128     24127     24129
     24131     24130     24132     24134     24133     24135     24137     24136     24138
     24140     24139     24141     24143     24142     24144     24146     24145     24147
     24149     24148     24150     24152     24151     24153     24155     24154     24156
     24158     24157     24159     24161     24160     24162     24164     24163     24165
     24167     24166     24168     24170     24169     24171     24173     24172     24174
     24176     24175     24177     24179     24178     24180     24182     24181     24183
     24185     24184     24186     24188     24187     24189     24191     24190     24192
     24194     24193     24195     24197     24196     24198     24200     24199     24201
     24203     24202     24204     24206     24205     24207     24209     24208     24210
     24212     24211     24213     24215     24214     24216     24218     24217     24219
     24221     24220     24222     24224     24223     24225     24227     24226     24228
     24230     24229     24231     24233     24232     24234     24236     24235     24237
     24239     24238     24240     24242     24241     24243     24245     24244     24246
     24248     24247     24249     24251     24250     24252     24254     24253     24255
     24257     24256     24258     24260     24259     24261     24263     24262     24264
     24266     24265     24267     24269     24268     24270     24272     24271     24273
     24275     24274     24276     24278     24277     24279     24281     24280     24282
     24284     24283     24285     24287     24286     24288     24290     24289     24291
     24293     24292     24294     24296     24295     24297     24299     24298     24300
     24302     24301     24303     24305     24304     24306     24308     24307     24309
     24311     24310     24312     24314     24313     24315     24317     24316     24318
     24320     24319     24321     24323     24322     24324     24326     24325     24327
     24329     24328     24330     24332     24331     24333     24335     24334     24336
     24338     24337     24339     24341     24340     24342     24344     24343     24345
     24347     24346     24348     24350     24349     24351     24353     24352     24354
     24356     24355     24357     24359     24358     24360     24362     24361     24363
     24365     24364     24366     24368     24367     24369     24371     24370     24372
     24374     24373     24375     24377     24376     24378     24380     24379     24381
     24383     24382     24384     24386     24385     24387     24389     24388     24390
     24392     24391     24393     24395     24394     24396     24398     24397     24399
     24401     24400     24402     24404     24403     24405     24407     24406     24408
     24410     24409     24411     24413     24412     24414     24416     24415     24417
     24419     24418     24420     24422     24421     24423     24425     24424     24426
     24428     24427     24429     24431     24430     24432     24434     24433     24435
     24437     24436     24438     24440     24439     24441     24443     24442     24444
     24446     24445     24447     24449     24448     24450     24452     24451     24453
     24455     24454     24456     24458     24457     24459     24461     24460     24462
     24464     24463     24465     24467     24466     24468     24470     24469     24471
     24473     24472     24474     24476     24475     24477     24479     24478     24480
     24482     24481     24483     24485     24484     24486     24488     24487     24489
     24491     24490     24492     24494     24493     24495     24497     24496     24498
     24500     24499     24501     24503     24502     24504     24506     24505     24507
     24509     24508     24510     24512     24511     24513     24515     24514     24516
     24518     24517     24519     24521     24520     24522     24524     24523     24525
     24527     24526     24528     24530     24529     24531     24533     24532     24534
     24536     24535     24537     24539     24538     24540     24542     24541     24543
     24545     24544     24546     24548     24547     24549     24551     24550     24552
     24554     24553     24555     24557     24556     24558     24560     24559     24561
     24563     24562     24564     24566     24565     24567     24569     24568     24570
     24572     24571     24573     24575     24574     24576     24578     24577     24579
     24581     24580     24582     24584     24583     24585     24587     24586     24588
     24590     24589     24591     24593     24592     24594     24596     24595     24597
     24599     24598     24600     24602     24601     24603     24605     24604     24606
     24608     24607     24609     24611     24610     24612     24614     24613     24615
     24617     24616     24618     24620     24619     24621     24623     24622     24624
     24626     24625     24627     24629     24628     24630     24632     24631     24633
     24635     24634     24636     24638     24637     24639     24641     24640     24642
     24644     24643     24645     24647     24646     24648     24650     24649     24651
     24653     24652     24654     24656     24655     24657     24659     24658     24660
     24662     24661     24663     24665     24664     24666     24668     24667     24669
     24671     24670     24672     24674     24673     24675     24677     24676     24678
     24680     24679     24681     24683     24682     24684     24686     24685     24687
     24689     24688     24690     24692     24691     24693     24695     24694     24696
     24698     24697     24699     24701     24700     24702     24704     24703     24705
     24707     24706     24708     24710     24709     24711     24713     24712     24714
     24716     24715     24717     24719     24718     24720     24722     24721     24723
     24725     24724     24726     24728     24727     24729     24731     24730     24732
     24734     24733     24735     24737     24736     24738     24740     24739     24741
     24743     24742     24744     24746     24745     24747     24749     24748     24750
     24752     24751     24753     24755     24754     24756     24758     24757     24759
     24761     24760     24762     24764     24763     24765     24767     24766     24768
     24770     24769     24771     24773     24772     24774     24776     24775     24777
     24779     24778     24780     24782     24781     24783     24785     24784     24786
     24788     24787     24789     24791     24790     24792     24794     24793     24795
     24797     24796     24798     24800     24799     24801     24803     24802     24804
     24806     24805     24807     24809     24808     24810     24812     24811     24813
     24815     24814     24816     24818     24817     24819     24821     24820     24822
     24824     24823     24825     24827     24826     24828     24830     24829     24831
     24833     24832     24834     24836     24835     24837     24839     24838     24840
     24842     24841     24843     24845     24844     24846     24848     24847     24849
     24851     24850     24852     24854     24853     24855     24857     24856     24858
     24860     24859     24861     24863     24862     24864     24866     24865     24867
     24869     24868     24870     24872     24871     24873     24875     24874     24876
     24878     24877     24879     24881     24880     24882     24884     24883     24885
     24887     24886     24888     24890     24889     24891     24893     24892     24894
     24896     24895     24897     24899     24898     24900     24902     24901     24903
     24905     24904     24906     24908     24907     24909     24911     24910     24912
     24914     24913     24915     24917     24916     24918     24920     24919     24921
     24923     24922     24924     24926     24925     24927     24929     24928     24930
     24932     24931     24933     24935     24934     24936     24938     24937     24939
     24941     24940     24942     24944     24943     24945     24947     24946     24948
     24950     24949     24951     24953     24952     24954     24956     24955     24957
     24959     24958     24960     24962     24961     24963     24965     24964     24966
     24968     24967     24969     24971     24970     24972     24974     24973     24975
     24977     24976     24978     24980     24979     24981     24983     24982     24984
     24986     24985     24987     24989     24988     24990     24992     24991     24993
     24995     24994     24996     24998     24997     24999     25001     25000     25002
     25004     25003     25005     25007     25006     25008     25010     25009     25011
     25013     25012     25014     25016     25015     25017     25019     25018     25020
     25022     25021     25023     25025     25024     25026     25028     25027     25029
     25031     25030     25032     25034     25033     25035     25037     25036     25038
     25040     25039     25041     25043     25042     25044     25046     25045     25047
     25049     25048     25050     25052     25051     25053     25055     25054     25056
     25058     25057     25059     25061     25060     25062     25064     25063     25065
     25067     25066     25068     25070     25069     25071     25073     25072     25074
     25076     25075     25077     25079     25078     25080     25082     25081     25083
     25085     25084     25086     25088     25087     25089     25091     25090     25092
     25094     25093     25095     25097     25096     25098     25100     25099     25101
     25103     25102     25104     25106     25105     25107     25109     25108     25110
     25112     25111     25113     25115     25114     25116     25118     25117     25119
     25121     25120     25122     25124     25123     25125     25127     25126     25128
     25130     25129     25131     25133     25132     25134     25136     25135     25137
     25139     25138     25140     25142     25141     25143     25145     25144     25146
     25148     25147     25149     25151     25150     25152     25154     25153     25155
     25157     25156     25158     25160     25159     25161     25163     25162     25164
     25166     25165     25167     25169     25168     25170     25172     25171     25173
     25175     25174     25176     25178     25177     25179     25181     25180     25182
     25184     25183     25185     25187     25186     25188     25190     25189     25191
     25193     25192     25194     25196     25195     25197     25199     25198     25200
     25202     25201     25203     25205     25204     25206     25208     25207     25209
     25211     25210     25212     25214     25213     25215     25217     25216     25218
     25220     25219     25221     25223     25222     25224     25226     25225     25227
     25229     25228     25230     25232     25231     25233     25235     25234     25236
     25238     25237     25239     25241     25240     25242     25244     25243     25245
     25247     25246     25248     25250     25249     25251     25253     25252     25254
     25256     25255     25257     25259     25258     25260     25262     25261     25263
     25265     25264     25266     25268     25267     25269     25271     25270     25272
     25274     25273     25275     25277     25276     25278     25280     25279     25281
     25283     25282     25284     25286     25285     25287     25289     25288     25290
     25292     25291     25293     25295     25294     25296     25298     25297     25299
     25301     25300     25302     25304     25303     25305     25307     25306     25308
     25310     25309     25311     25313     25312     25314     25316     25315     25317
     25319     25318     25320     25322     25321     25323     25325     25324     25326
     25328     25327     25329     25331     25330     25332     25334     25333     25335
     25337     25336     25338     25340     25339     25341     25343     25342     25344
     25346     25345     25347     25349     25348     25350     25352     25351     25353
     25355     25354     25356     25358     25357     25359     25361     25360     25362
     25364     25363     25365     25367     25366     25368     25370     25369     25371
     25373     25372     25374     25376     25375     25377     25379     25378     25380
     25382     25381     25383     25385     25384     25386     25388     25387     25389
     25391     25390     25392     25394     25393     25395     25397     25396     25398
     25400     25399     25401     25403     25402     25404     25406     25405     25407
     25409     25408     25410     25412     25411     25413     25415     25414     25416
     25418     25417     25419     25421     25420     25422     25424     25423     25425
     25427     25426     25428     25430     25429     25431     25433     25432     25434
     25436     25435     25437     25439     25438     25440     25442     25441     25443
     25445     25444     25446     25448     25447     25449     25451     25450     25452
     25454     25453     25455     25457     25456     25458     25460     25459     25461
     25463     25462     25464     25466     25465     25467     25469     25468     25470
     25472     25471     25473     25475     25474     25476     25478     25477     25479
     25481     25480     25482     25484     25483     25485     25487     25486     25488
     25490     25489     25491     25493     25492     25494     25496     25495     25497
     25499     25498     25500     25502     25501     25503     25505     25504     25506
     25508     25507     25509     25511     25510     25512     25514     25513     25515
     25517     25516     25518     25520     25519     25521     25523     25522     25524
     25526     25525     25527     25529     25528     25530     25532     25531     25533
     25535     25534     25536     25538     25537     25539     25541     25540     25542
     25544     25543     25545     25547     25546     25548     25550     25549     25551
     25553     25552     25554     25556     25555     25557     25559     25558     25560
     25562     25561     25563     25565     25564     25566     25568     25567     25569
     25571     25570     25572     25574     25573     25575     25577     25576     25578
     25580     25579     25581     25583     25582     25584     25586     25585     25587
     25589     25588     25590     25592     25591     25593     25595     25594     25596
     25598     25597     25599     25601     25600     25602     25604     25603     25605
     25607     25606     25608     25610     25609     25611     25613     25612     25614
     25616     25615     25617     25619     25618     25620     25622     25621     25623
     25625     25624     25626     25628     25627     25629     25631     25630     25632
     25634     25633     25635     25637     25636     25638     25640     25639     25641
     25643     25642     25644     25646     25645     25647     25649     25648     25650
     25652     25651     25653     25655     25654     25656     25658     25657     25659
     25661     25660     25662     25664     25663     25665     25667     25666     25668
     25670     25669     25671     25673     25672     25674     25676     25675     25677
     25679     25678     25680     25682     25681     25683     25685     25684     25686
     25688     25687     25689     25691     25690     25692     25694     25693     25695
     25697     25696     25698     25700     25699     25701     25703     25702     25704
     25706     25705     25707     25709     25708     25710     25712     25711     25713
     25715     25714     25716     25718     25717     25719     25721     25720     25722
     25724     25723     25725     25727     25726     25728     25730     25729     25731
     25733     25732     25734     25736     25735     25737     25739     25738     25740
     25742     25741     25743     25745     25744     25746     25748     25747     25749
     25751     25750     25752     25754     25753     25755     25757     25756     25758
     25760     25759     25761     25763     25762     25764     25766     25765     25767
     25769     25768     25770     25772     25771     25773     25775     25774     25776
     25778     25777     25779     25781     25780     25782     25784     25783     25785
     25787     25786     25788     25790     25789     25791     25793     25792     25794
     25796     25795     25797     25799     25798     25800     25802     25801     25803
     25805     25804     25806     25808     25807     25809     25811     25810     25812
     25814     25813     25815     25817     25816     25818     25820     25819     25821
     25823     25822     25824     25826     25825     25827     25829     25828     25830
     25832     25831     25833     25835     25834     25836     25838     25837     25839
     25841     25840     25842     25844     25843     25845     25847     25846     25848
     25850     25849     25851     25853     25852     25854     25856     25855     25857
     25859     25858     25860     25862     25861     25863     25865     25864     25866
     25868     25867     25869     25871     25870     25872     25874     25873     25875
     25877     25876     25878     25880     25879     25881     25883     25882     25884
     25886     25885     25887     25889     25888     25890     25892     25891     25893
     25895     25894     25896     25898     25897     25899     25901     25900     25902
     25904     25903     25905     25907     25906     25908     25910     25909     25911
     25913     25912     25914     25916     25915     25917     25919     25918     25920
     25922     25921     25923     25925     25924     25926     25928     25927     25929
     25931     25930     25932     25934     25933     25935     25937     25936     25938
     25940     25939     25941     25943     25942     25944     25946     25945     25947
     25949     25948     25950     25952     25951     25953     25955     25954     25956
     25958     25957     25959     25961     25960     25962     25964     25963     25965
     25967     25966     25968     25970     25969     25971     25973     25972     25974
     25976     25975     25977     25979     25978     25980     25982     25981     25983
     25985     25984     25986     25988     25987     25989     25991     25990     25992
     25994     25993     25995     25997     25996     25998     26000     25999     26001
     26003     26002     26004     26006     26005     26007     26009     26008     26010
     26012     26011     26013     26015     26014     26016     26018     26017     26019
     26021     26020     26022     26024     26023     26025     26027     26026     26028
     26030     26029     26031     26033     26032     26034     26036     26035     26037
     26039     26038     26040     26042     26041     26043     26045     26044     26046
     26048     26047     26049     26051     26050     26052     26054     26053     26055
     26057     26056     26058     26060     26059     26061     26063     26062     26064
     26066     26065     26067     26069     26068     26070     26072     26071     26073
     26075     26074     26076     26078     26077     26079     26081     26080     26082
     26084     26083     26085     26087     26086     26088     26090     26089     26091
     26093     26092     26094     26096     26095     26097     26099     26098     26100
     26102     26101     26103     26105     26104     26106     26108     26107     26109
     26111     26110     26112     26114     26113     26115     26117     26116     26118
     26120     26119     26121     26123     26122     26124     26126     26125     26127
     26129     26128     26130     26132     26131     26133     26135     26134     26136
     26138     26137     26139     26141     26140     26142     26144     26143     26145
     26147     26146     26148     26150     26149     26151     26153     26152     26154
     26156     26155     26157     26159     26158     26160     26162     26161     26163
     26165     26164     26166     26168     26167     26169     26171     26170     26172
     26174     26173     26175     26177     26176     26178     26180     26179     26181
     26183     26182     26184     26186     26185     26187     26189     26188     26190
     26192     26191     26193     26195     26194     26196     26198     26197     26199
     26201     26200     26202     26204     26203     26205     26207     26206     26208
     26210     26209     26211     26213     26212     26214     26216     26215     26217
     26219     26218     26220     26222     26221     26223     26225     26224     26226
     26228     26227     26229     26231     26230     26232     26234     26233     26235
     26237     26236     26238     26240     26239     26241     26243     26242     26244
     26246     26245     26247     26249     26248     26250     26252     26251     26253
     26255     26254     26256     26258     26257     26259     26261     26260     26262
     26264     26263     26265     26267     26266     26268     26270     26269     26271
     26273     26272     26274     26276     26275     26277     26279     26278     26280
     26282     26281     26283     26285     26284     26286     26288     26287     26289
     26291     26290     26292     26294     26293     26295     26297     26296     26298
     26300     26299     26301     26303     26302     26304     26306     26305     26307
     26309     26308     26310     26312     26311     26313     26315     26314     26316
     26318     26317     26319     26321     26320     26322     26324     26323     26325
     26327     26326     26328     26330     26329     26331     26333     26332     26334
     26336     26335     26337     26339     26338     26340     26342     26341     26343
     26345     26344     26346     26348     26347     26349     26351     26350     26352
     26354     26353     26355     26357     26356     26358     26360     26359     26361
     26363     26362     26364     26366     26365     26367     26369     26368     26370
     26372     26371     26373     26375     26374     26376     26378     26377     26379
     26381     26380     26382     26384     26383     26385     26387     26386     26388
     26390     26389     26391     26393     26392     26394     26396     26395     26397
     26399     26398     26400     26402     26401     26403     26405     26404     26406
     26408     26407     26409     26411     26410     26412     26414     26413     26415
     26417     26416     26418     26420     26419     26421     26423     26422     26424
     26426     26425     26427     26429     26428     26430     26432     26431     26433
     26435     26434     26436     26438     26437     26439     26441     26440     26442
     26444     26443     26445     26447     26446     26448     26450     26449     26451
     26453     26452     26454     26456     26455     26457     26459     26458     26460
     26462     26461     26463     26465     26464     26466     26468     26467     26469
     26471     26470     26472     26474     26473     26475     26477     26476     26478
     26480     26479     26481     26483     26482     26484     26486     26485     26487
     26489     26488     26490     26492     26491     26493     26495     26494     26496
     26498     26497     26499     26501     26500     26502     26504     26503     26505
     26507     26506     26508     26510     26509     26511     26513     26512     26514
     26516     26515     26517     26519     26518     26520     26522     26521     26523
     26525     26524     26526     26528     26527     26529     26531     26530     26532
     26534     26533     26535     26537     26536     26538     26540     26539     26541
     26543     26542     26544     26546     26545     26547     26549     26548     26550
     26552     26551     26553     26555     26554     26556     26558     26557     26559
     26561     26560     26562     26564     26563     26565     26567     26566     26568
     26570     26569     26571     26573     26572     26574     26576     26575     26577
     26579     26578     26580     26582     26581     26583     26585     26584     26586
     26588     26587     26589     26591     26590     26592     26594     26593     26595
     26597     26596     26598     26600     26599     26601     26603     26602     26604
     26606     26605     26607     26609     26608     26610     26612     26611     26613
     26615     26614     26616     26618     26617     26619     26621     26620     26622
     26624     26623     26625     26627     26626     26628     26630     26629     26631
     26633     26632     26634     26636     26635     26637     26639     26638     26640
     26642     26641     26643     26645     26644     26646     26648     26647     26649
     26651     26650     26652     26654     26653     26655     26657     26656     26658
     26660     26659     26661     26663     26662     26664     26666     26665     26667
     26669     26668     26670     26672     26671     26673     26675     26674     26676
     26678     26677     26679     26681     26680     26682     26684     26683     26685
     26687     26686     26688     26690     26689     26691     26693     26692     26694
     26696     26695     26697     26699     26698     26700     26702     26701     26703
     26705     26704     26706     26708     26707     26709     26711     26710     26712
     26714     26713     26715     26717     26716     26718     26720     26719     26721
     26723     26722     26724     26726     26725     26727     26729     26728     26730
     26732     26731     26733     26735     26734     26736     26738     26737     26739
     26741     26740     26742     26744     26743     26745     26747     26746     26748
     26750     26749     26751     26753     26752     26754     26756     26755     26757
     26759     26758     26760     26762     26761     26763     26765     26764     26766
     26768     26767     26769     26771     26770     26772     26774     26773     26775
     26777     26776     26778     26780     26779     26781     26783     26782     26784
     26786     26785     26787     26789     26788     26790     26792     26791     26793
     26795     26794     26796     26798     26797     26799     26801     26800     26802
     26804     26803     26805     26807     26806     26808     26810     26809     26811
     26813     26812     26814     26816     26815     26817     26819     26818     26820
     26822     26821     26823     26825     26824     26826     26828     26827     26829
     26831     26830     26832     26834     26833     26835     26837     26836     26838
     26840     26839     26841     26843     26842     26844     26846     26845     26847
     26849     26848     26850     26852     26851     26853     26855     26854     26856
     26858     26857     26859     26861     26860     26862     26864     26863     26865
     26867     26866     26868     26870     26869     26871     26873     26872     26874
     26876     26875     26877     26879     26878     26880     26882     26881     26883
     26885     26884     26886     26888     26887     26889     26891     26890     26892
     26894     26893     26895     26897     26896     26898     26900     26899     26901
     26903     26902     26904     26906     26905     26907     26909     26908     26910
     26912     26911     26913     26915     26914     26916     26918     26917     26919
     26921     26920     26922     26924     26923     26925     26927     26926     26928
     26930     26929     26931     26933     26932     26934     26936     26935     26937
     26939     26938     26940     26942     26941     26943     26945     26944     26946
     26948     26947     26949     26951     26950     26952     26954     26953     26955
     26957     26956     26958     26960     26959     26961     26963     26962     26964
     26966     26965     26967     26969     26968     26970     26972     26971     26973
     26975     26974     26976     26978     26977     26979     26981     26980     26982
     26984     26983     26985     26987     26986     26988     26990     26989     26991
     26993     26992     26994     26996     26995     26997     26999     26998     27000
     27002     27001     27003     27005     27004     27006     27008     27007     27009
     27011     27010     27012     27014     27013     27015     27017     27016     27018
     27020     27019     27021     27023     27022     27024     27026     27025     27027
     27029     27028     27030     27032     27031     27033     27035     27034     27036
     27038     27037     27039     27041     27040     27042     27044     27043     27045
     27047     27046     27048     27050     27049     27051     27053     27052     27054
     27056     27055     27057     27059     27058     27060     27062     27061     27063
     27065     27064     27066     27068     27067     27069     27071     27070     27072
     27074     27073     27075     27077     27076     27078     27080     27079     27081
     27083     27082     27084     27086     27085     27087     27089     27088     27090
     27092     27091     27093     27095     27094     27096     27098     27097     27099
     27101     27100     27102     27104     27103     27105     27107     27106     27108
     27110     27109     27111     27113     27112     27114     27116     27115     27117
     27119     27118     27120     27122     27121     27123     27125     27124     27126
     27128     27127     27129     27131     27130     27132     27134     27133     27135
     27137     27136     27138     27140     27139     27141     27143     27142     27144
     27146     27145     27147     27149     27148     27150     27152     27151     27153
     27155     27154     27156     27158     27157     27159     27161     27160     27162
     27164     27163     27165     27167     27166     27168     27170     27169     27171
     27173     27172     27174     27176     27175     27177     27179     27178     27180
     27182     27181     27183     27185     27184     27186     27188     27187     27189
     27191     27190     27192     27194     27193     27195     27197     27196     27198
     27200     27199     27201     27203     27202     27204     27206     27205     27207
     27209     27208     27210     27212     27211     27213     27215     27214     27216
     27218     27217     27219     27221     27220     27222     27224     27223     27225
     27227     27226     27228     27230     27229     27231     27233     27232     27234
     27236     27235     27237     27239     27238     27240     27242     27241     27243
     27245     27244     27246     27248     27247     27249     27251     27250     27252
     27254     27253     27255     27257     27256     27258     27260     27259     27261
     27263     27262     27264     27266     27265     27267     27269     27268     27270
     27272     27271     27273     27275     27274     27276     27278     27277     27279
     27281     27280     27282     27284     27283     27285     27287     27286     27288
     27290     27289     27291     27293     27292     27294     27296     27295     27297
     27299     27298     27300     27302     27301     27303     27305     27304     27306
     27308     27307     27309     27311     27310     27312     27314     27313     27315
     27317     27316     27318     27320     27319     27321     27323     27322     27324
     27326     27325     27327     27329     27328     27330     27332     27331     27333
     27335     27334     27336     27338     27337     27339     27341     27340     27342
     27344     27343     27345     27347     27346     27348     27350     27349     27351
     27353     27352     27354     27356     27355     27357     27359     27358     27360
     27362     27361     27363     27365     27364     27366     27368     27367     27369
     27371     27370     27372     27374     27373     27375     27377     27376     27378
     27380     27379     27381     27383     27382     27384     27386     27385     27387
     27389     27388     27390     27392     27391     27393     27395     27394     27396
     27398     27397     27399     27401     27400     27402     27404     27403     27405
     27407     27406     27408     27410     27409     27411     27413     27412     27414
     27416     27415     27417     27419     27418     27420     27422     27421     27423
     27425     27424     27426     27428     27427     27429     27431     27430     27432
     27434     27433     27435     27437     27436     27438     27440     27439     27441
     27443     27442     27444     27446     27445     27447     27449     27448     27450
     27452     27451     27453     27455     27454     27456     27458     27457     27459
     27461     27460     27462     27464     27463     27465     27467     27466     27468
     27470     27469     27471     27473     27472     27474     27476     27475     27477
     27479     27478     27480     27482     27481     27483     27485     27484     27486
     27488     27487     27489     27491     27490     27492     27494     27493     27495
     27497     27496     27498     27500     27499     27501     27503     27502     27504
     27506     27505     27507     27509     27508     27510     27512     27511     27513
     27515     27514     27516     27518     27517     27519     27521     27520     27522
     27524     27523     27525     27527     27526     27528     27530     27529     27531
     27533     27532     27534     27536     27535     27537     27539     27538     27540
     27542     27541     27543     27545     27544     27546     27548     27547     27549
     27551     27550     27552     27554     27553     27555     27557     27556     27558
     27560     27559     27561     27563     27562     27564     27566     27565     27567
     27569     27568     27570     27572     27571     27573     27575     27574     27576
     27578     27577     27579     27581     27580     27582     27584     27583     27585
     27587     27586     27588     27590     27589     27591     27593     27592     27594
     27596     27595     27597     27599     27598     27600     27602     27601     27603
     27605     27604     27606     27608     27607     27609     27611     27610     27612
     27614     27613     27615     27617     27616     27618     27620     27619     27621
     27623     27622     27624     27626     27625     27627     27629     27628     27630
     27632     27631     27633     27635     27634     27636     27638     27637     27639
     27641     27640     27642     27644     27643     27645     27647     27646     27648
     27650     27649     27651     27653     27652     27654     27656     27655     27657
     27659     27658     27660     27662     27661     27663     27665     27664     27666
     27668     27667     27669     27671     27670     27672     27674     27673     27675
     27677     27676     27678     27680     27679     27681     27683     27682     27684
     27686     27685     27687     27689     27688     27690     27692     27691     27693
     27695     27694     27696     27698     27697     27699     27701     27700     27702
     27704     27703     27705     27707     27706     27708     27710     27709     27711
     27713     27712     27714     27716     27715     27717     27719     27718     27720
     27722     27721     27723     27725     27724     27726     27728     27727     27729
     27731     27730     27732     27734     27733     27735     27737     27736     27738
     27740     27739     27741     27743     27742     27744     27746     27745     27747
     27749     27748     27750     27752     27751     27753     27755     27754     27756
     27758     27757     27759     27761     27760     27762     27764     27763     27765
     27767     27766     27768     27770     27769     27771     27773     27772     27774
     27776     27775     27777     27779     27778     27780     27782     27781     27783
     27785     27784     27786     27788     27787     27789     27791     27790     27792
     27794     27793     27795     27797     27796     27798     27800     27799     27801
     27803     27802     27804     27806     27805     27807     27809     27808     27810
     27812     27811     27813     27815     27814     27816     27818     27817     27819
     27821     27820     27822     27824     27823     27825     27827     27826     27828
     27830     27829     27831     27833     27832     27834     27836     27835     27837
     27839     27838     27840     27842     27841     27843     27845     27844     27846
     27848     27847     27849     27851     27850     27852     27854     27853     27855
     27857     27856     27858     27860     27859     27861     27863     27862     27864
     27866     27865     27867     27869     27868     27870     27872     27871     27873
     27875     27874     27876     27878     27877     27879     27881     27880     27882
     27884     27883     27885     27887     27886     27888     27890     27889     27891
     27893     27892     27894     27896     27895     27897     27899     27898     27900
     27902     27901     27903     27905     27904     27906     27908     27907     27909
     27911     27910     27912     27914     27913     27915     27917     27916     27918
     27920     27919     27921     27923     27922     27924     27926     27925     27927
     27929     27928     27930     27932     27931     27933     27935     27934     27936
     27938     27937     27939     27941     27940     27942     27944     27943     27945
     27947     27946     27948     27950     27949     27951     27953     27952     27954
     27956     27955     27957     27959     27958     27960     27962     27961     27963
     27965     27964     27966     27968     27967     27969     27971     27970     27972
     27974     27973     27975     27977     27976     27978     27980     27979     27981
     27983     27982     27984     27986     27985     27987     27989     27988     27990
     27992     27991     27993     27995     27994     27996     27998     27997     27999
     28001     28000     28002     28004     28003     28005     28007     28006     28008
     28010     28009     28011     28013     28012     28014     28016     28015     28017
     28019     28018     28020     28022     28021     28023     28025     28024     28026
     28028     28027     28029     28031     28030     28032     28034     28033     28035
     28037     28036     28038     28040     28039     28041     28043     28042     28044
     28046     28045     28047     28049     28048     28050     28052     28051     28053
     28055     28054     28056     28058     28057     28059     28061     28060     28062
     28064     28063     28065     28067     28066     28068     28070     28069     28071
     28073     28072     28074

     45734 !NPHI: dihedrals
         1         2        17        18         1         2        17        19
         1         2        17        23         2         1         5         6
         2         1         5         7         2         1         5         8
         2         1         9        10         2         1         9        11
         2         1         9        12         2         1        13        14
         2         1        13        15         2         1        13        16
         2        17        23        20         3         2         1         5
         3         2         1         9         3         2         1        13
         3         2        17        18         3         2        17        19
         3         2        17        23         4         2         1         5
         4         2         1         9         4         2         1        13
         4         2        17        18         4         2        17        19
         4         2        17        23         5         1         2        17
         5         1         9        10         5         1         9        11
         5         1         9        12         5         1        13        14
         5         1        13        15         5         1        13        16
         6         5         1         9         6         5         1        13
         7         5         1         9         7         5         1        13
         8         5         1         9         8         5         1        13
         9         1         2        17         9         1        13        14
         9         1        13        15         9         1        13        16
        10         9         1        13        11         9         1        13
        12         9         1        13        13         1         2        17
        17        23        20        21        17        23        20        22
        17        23        20        24        18        17        23        20
        19        17        23        20        20        24        25        26
        20        24        25        27        20        24        25        28
        21        20        24        25        22        20        24        25
        23        20        24        25        24        25        28        29
        24        25        28        30        24        25        28        36
        25        28        30        31        25        28        36        37
        25        28        36        38        25        28        36        39
        26        25        28        29        26        25        28        30
        26        25        28        36        27        25        28        29
        27        25        28        30        27        25        28        36
        28        30        31        32        28        30        31        33
        28        36        39        40        29        28        30        31
        29        28        36        37        29        28        36        38
        29        28        36        39        30        28        36        37
        30        28        36        38        30        28        36        39
        30        31        33        34        30        31        33        35
        30        31        33        45        31        30        28        36
        31        33        45        46        31        33        45        47
        31        33        45        48        32        31        33        34
        32        31        33        35        32        31        33        45
        33        45        48        49        33        45        48        50
        33        45        48        51        34        33        45        46
        34        33        45        47        34        33        45        48
        35        33        45        46        35        33        45        47
        35        33        45        48        36        39        40        41
        36        39        40        42        37        36        39        40
        38        36        39        40        39        40        42        43
        39        40        42        44        39        40        42        92
        40        42        92        93        40        42        92        94
        40        42        92        95        41        40        42        43
        41        40        42        44        41        40        42        92
        42        92        95        96        42        92        95        97
        42        92        95        98        43        42        92        93
        43        42        92        94        43        42        92        95
        44        42        92        93        44        42        92        94
        44        42        92        95        45        48        51        52
        45        48        51        53        45        48        51        54
        46        45        48        49        46        45        48        50
        46        45        48        51        47        45        48        49
        47        45        48        50        47        45        48        51
        48        51        54        55        48        51        54        56
        48        51        54        57        49        48        51        52
        49        48        51        53        49        48        51        54
        50        48        51        52        50        48        51        53
        50        48        51        54        51        54        57        58
        51        54        57        59        51        54        57        60
        52        51        54        55        52        51        54        56
        52        51        54        57        53        51        54        55
        53        51        54        56        53        51        54        57
        54        57        60        61        54        57        60        62
        54        57        60        63        55        54        57        58
        55        54        57        59        55        54        57        60
        56        54        57        58        56        54        57        59
        56        54        57        60        57        60        63        64
        57        60        63        65        58        57        60        61
        58        57        60        62        58        57        60        63
        59        57        60        61        59        57        60        62
        59        57        60        63        60        63        65        66
        60        63        65        67        61        60        63        64
        61        60        63        65        62        60        63        64
        62        60        63        65        63        65        67        68
        63        65        67        69        63        65        67        70
        64        63        65        66        64        63        65        67
        65        67        70        71        65        67        70        72
        65        67        70        73        66        65        67        68
        66        65        67        69        66        65        67        70
        67        70        73        74        67        70        73        75
        67        70        73        76        68        67        70        71
        68        67        70        72        68        67        70        73
        69        67        70        71        69        67        70        72
        69        67        70        73        70        73        76        77
        70        73        76        78        70        73        76        79
        71        70        73        74        71        70        73        75
        71        70        73        76        72        70        73        74
        72        70        73        75        72        70        73        76
        73        76        79        80        73        76        79        81
        73        76        79        82        74        73        76        77
        74        73        76        78        74        73        76        79
        75        73        76        77        75        73        76        78
        75        73        76        79        76        79        82        83
        76        79        82        84        76        79        82        85
        77        76        79        80        77        76        79        81
        77        76        79        82        78        76        79        80
        78        76        79        81        78        76        79        82
        79        82        85        86        79        82        85        87
        79        82        85        88        80        79        82        83
        80        79        82        84        80        79        82        85
        81        79        82        83        81        79        82        84
        81        79        82        85        82        85        88        89
        82        85        88        90        82        85        88        91
        83        82        85        86        83        82        85        87
        83        82        85        88        84        82        85        86
        84        82        85        87        84        82        85        88
        86        85        88        89        86        85        88        90
        86        85        88        91        87        85        88        89
        87        85        88        90        87        85        88        91
        92        95        98        99        92        95        98       100
        92        95        98       101        93        92        95        96
        93        92        95        97        93        92        95        98
        94        92        95        96        94        92        95        97
        94        92        95        98        95        98       101       102
        95        98       101       103        95        98       101       104
        96        95        98        99        96        95        98       100
        96        95        98       101        97        95        98        99
        97        95        98       100        97        95        98       101
        98       101       104       105        98       101       104       106
        98       101       104       107        99        98       101       102
        99        98       101       103        99        98       101       104
       100        98       101       102       100        98       101       103
       100        98       101       104       101       104       107       108
       101       104       107       109       101       104       107       110
       102       101       104       105       102       101       104       106
       102       101       104       107       103       101       104       105
       103       101       104       106       103       101       104       107
       104       107       110       111       104       107       110       112
       104       107       110       113       105       104       107       108
       105       104       107       109       105       104       107       110
       106       104       107       108       106       104       107       109
       106       104       107       110       107       110       113       114
       107       110       113       115       107       110       113       116
       108       107       110       111       108       107       110       112
       108       107       110       113       109       107       110       111
       109       107       110       112       109       107       110       113
       110       113       116       117       110       113       116       118
       110       113       116       119       111       110       113       114
       111       110       113       115       111       110       113       116
       112       110       113       114       112       110       113       115
       112       110       113       116       113       116       119       120
       113       116       119       121       113       116       119       122
       114       113       116       117       114       113       116       118
       114       113       116       119       115       113       116       117
       115       113       116       118       115       113       116       119
       116       119       122       123       116       119       122       124
       116       119       122       125       117       116       119       120
       117       116       119       121       117       116       119       122
       118       116       119       120       118       116       119       121
       118       116       119       122       119       122       125       126
       119       122       125       127       119       122       125       128
       120       119       122       123       120       119       122       124
       120       119       122       125       121       119       122       123
       121       119       122       124       121       119       122       125
       122       125       128       129       122       125       128       130
       122       125       128       131       123       122       125       126
       123       122       125       127       123       122       125       128
       124       122       125       126       124       122       125       127
       124       122       125       128       125       128       131       132
       125       128       131       133       125       128       131       134
       126       125       128       129       126       125       128       130
       126       125       128       131       127       125       128       129
       127       125       128       130       127       125       128       131
       129       128       131       132       129       128       131       133
       129       128       131       134       130       128       131       132
       130       128       131       133       130       128       131       134
       135       136       151       152       135       136       151       153
       135       136       151       157       136       135       139       140
       136       135       139       141       136       135       139       142
       136       135       143       144       136       135       143       145
       136       135       143       146       136       135       147       148
       136       135       147       149       136       135       147       150
       136       151       157       154       137       136       135       139
       137       136       135       143       137       136       135       147
       137       136       151       152       137       136       151       153
       137       136       151       157       138       136       135       139
       138       136       135       143       138       136       135       147
       138       136       151       152       138       136       151       153
       138       136       151       157       139       135       136       151
       139       135       143       144       139       135       143       145
       139       135       143       146       139       135       147       148
       139       135       147       149       139       135       147       150
       140       139       135       143       140       139       135       147
       141       139       135       143       141       139       135       147
       142       139       135       143       142       139       135       147
       143       135       136       151       143       135       147       148
       143       135       147       149       143       135       147       150
       144       143       135       147       145       143       135       147
       146       143       135       147       147       135       136       151
       151       157       154       155       151       157       154       156
       151       157       154       158       152       151       157       154
       153       151       157       154       154       158       159       160
       154       158       159       161       154       158       159       162
       155       154       158       159       156       154       158       159
       157       154       158       159       158       159       162       163
       158       159       162       164       158       159       162       170
       159       162       164       165       159       162       170       171
       159       162       170       172       159       162       170       173
       160       159       162       163       160       159       162       164
       160       159       162       170       161       159       162       163
       161       159       162       164       161       159       162       170
       162       164       165       166       162       164       165       167
       162       170       173       174       163       162       164       165
       163       162       170       171       163       162       170       172
       163       162       170       173       164       162       170       171
       164       162       170       172       164       162       170       173
       164       165       167       168       164       165       167       169
       164       165       167       179       165       164       162       170
       165       167       179       180       165       167       179       181
       165       167       179       182       166       165       167       168
       166       165       167       169       166       165       167       179
       167       179       182       183       167       179       182       184
       167       179       182       185       168       167       179       180
       168       167       179       181       168       167       179       182
       169       167       179       180       169       167       179       181
       169       167       179       182       170       173       174       175
       170       173       174       176       171       170       173       174
       172       170       173       174       173       174       176       177
       173       174       176       178       173       174       176       226
       174       176       226       227       174       176       226       228
       174       176       226       229       175       174       176       177
       175       174       176       178       175       174       176       226
       176       226       229       230       176       226       229       231
       176       226       229       232       177       176       226       227
       177       176       226       228       177       176       226       229
       178       176       226       227       178       176       226       228
       178       176       226       229       179       182       185       186
       179       182       185       187       179       182       185       188
       180       179       182       183       180       179       182       184
       180       179       182       185       181       179       182       183
       181       179       182       184       181       179       182       185
       182       185       188       189       182       185       188       190
       182       185       188       191       183       182       185       186
       183       182       185       187       183       182       185       188
       184       182       185       186       184       182       185       187
       184       182       185       188       185       188       191       192
       185       188       191       193       185       188       191       194
       186       185       188       189       186       185       188       190
       186       185       188       191       187       185       188       189
       187       185       188       190       187       185       188       191
       188       191       194       195       188       191       194       196
       188       191       194       197       189       188       191       192
       189       188       191       193       189       188       191       194
       190       188       191       192       190       188       191       193
       190       188       191       194       191       194       197       198
       191       194       197       199       192       191       194       195
       192       191       194       196       192       191       194       197
       193       191       194       195       193       191       194       196
       193       191       194       197       194       197       199       200
       194       197       199       201       195       194       197       198
       195       194       197       199       196       194       197       198
       196       194       197       199       197       199       201       202
       197       199       201       203       197       199       201       204
       198       197       199       200       198       197       199       201
       199       201       204       205       199       201       204       206
       199       201       204       207       200       199       201       202
       200       199       201       203       200       199       201       204
       201       204       207       208       201       204       207       209
       201       204       207       210       202       201       204       205
       202       201       204       206       202       201       204       207
       203       201       204       205       203       201       204       206
       203       201       204       207       204       207       210       211
       204       207       210       212       204       207       210       213
       205       204       207       208       205       204       207       209
       205       204       207       210       206       204       207       208
       206       204       207       209       206       204       207       210
       207       210       213       214       207       210       213       215
       207       210       213       216       208       207       210       211
       208       207       210       212       208       207       210       213
       209       207       210       211       209       207       210       212
       209       207       210       213       210       213       216       217
       210       213       216       218       210       213       216       219
       211       210       213       214       211       210       213       215
       211       210       213       216       212       210       213       214
       212       210       213       215       212       210       213       216
       213       216       219       220       213       216       219       221
       213       216       219       222       214       213       216       217
       214       213       216       218       214       213       216       219
       215       213       216       217       215       213       216       218
       215       213       216       219       216       219       222       223
       216       219       222       224       216       219       222       225
       217       216       219       220       217       216       219       221
       217       216       219       222       218       216       219       220
       218       216       219       221       218       216       219       222
       220       219       222       223       220       219       222       224
       220       219       222       225       221       219       222       223
       221       219       222       224       221       219       222       225
       226       229       232       233       226       229       232       234
       226       229       232       235       227       226       229       230
       227       226       229       231       227       226       229       232
       228       226       229       230       228       226       229       231
       228       226       229       232       229       232       235       236
       229       232       235       237       229       232       235       238
       230       229       232       233       230       229       232       234
       230       229       232       235       231       229       232       233
       231       229       232       234       231       229       232       235
       232       235       238       239       232       235       238       240
       232       235       238       241       233       232       235       236
       233       232       235       237       233       232       235       238
       234       232       235       236       234       232       235       237
       234       232       235       238       235       238       241       242
       235       238       241       243       235       238       241       244
       236       235       238       239       236       235       238       240
       236       235       238       241       237       235       238       239
       237       235       238       240       237       235       238       241
       238       241       244       245       238       241       244       246
       238       241       244       247       239       238       241       242
       239       238       241       243       239       238       241       244
       240       238       241       242       240       238       241       243
       240       238       241       244       241       244       247       248
       241       244       247       249       241       244       247       250
       242       241       244       245       242       241       244       246
       242       241       244       247       243       241       244       245
       243       241       244       246       243       241       244       247
       244       247       250       251       244       247       250       252
       244       247       250       253       245       244       247       248
       245       244       247       249       245       244       247       250
       246       244       247       248       246       244       247       249
       246       244       247       250       247       250       253       254
       247       250       253       255       247       250       253       256
       248       247       250       251       248       247       250       252
       248       247       250       253       249       247       250       251
       249       247       250       252       249       247       250       253
       250       253       256       257       250       253       256       258
       250       253       256       259       251       250       253       254
       251       250       253       255       251       250       253       256
       252       250       253       254       252       250       253       255
       252       250       253       256       253       256       259       260
       253       256       259       261       253       256       259       262
       254       253       256       257       254       253       256       258
       254       253       256       259       255       253       256       257
       255       253       256       258       255       253       256       259
       256       259       262       263       256       259       262       264
       256       259       262       265       257       256       259       260
       257       256       259       261       257       256       259       262
       258       256       259       260       258       256       259       261
       258       256       259       262       259       262       265       266
       259       262       265       267       259       262       265       268
       260       259       262       263       260       259       262       264
       260       259       262       265       261       259       262       263
       261       259       262       264       261       259       262       265
       263       262       265       266       263       262       265       267
       263       262       265       268       264       262       265       266
       264       262       265       267       264       262       265       268
       269       270       285       286       269       270       285       287
       269       270       285       291       270       269       273       274
       270       269       273       275       270       269       273       276
       270       269       277       278       270       269       277       279
       270       269       277       280       270       269       281       282
       270       269       281       283       270       269       281       284
       270       285       291       288       271       270       269       273
       271       270       269       277       271       270       269       281
       271       270       285       286       271       270       285       287
       271       270       285       291       272       270       269       273
       272       270       269       277       272       270       269       281
       272       270       285       286       272       270       285       287
       272       270       285       291       273       269       270       285
       273       269       277       278       273       269       277       279
       273       269       277       280       273       269       281       282
       273       269       281       283       273       269       281       284
       274       273       269       277       274       273       269       281
       275       273       269       277       275       273       269       281
       276       273       269       277       276       273       269       281
       277       269       270       285       277       269       281       282
       277       269       281       283       277       269       281       284
       278       277       269       281       279       277       269       281
       280       277       269       281       281       269       270       285
       285       291       288       289       285       291       288       290
       285       291       288       292       286       285       291       288
       287       285       291       288       288       292       293       294
       288       292       293       295       288       292       293       296
       289       288       292       293       290       288       292       293
       291       288       292       293       292       293       296       297
       292       293       296       298       292       293       296       304
       293       296       298       299       293       296       304       305
       293       296       304       306       293       296       304       307
       294       293       296       297       294       293       296       298
       294       293       296       304       295       293       296       297
       295       293       296       298       295       293       296       304
       296       298       299       300       296       298       299       301
       296       304       307       308       297       296       298       299
       297       296       304       305       297       296       304       306
       297       296       304       307       298       296       304       305
       298       296       304       306       298       296       304       307
       298       299       301       302       298       299       301       303
       298       299       301       313       299       298       296       304
       299       301       313       314       299       301       313       315
       299       301       313       316       300       299       301       302
       300       299       301       303       300       299       301       313
       301       313       316       317       301       313       316       318
       301       313       316       319       302       301       313       314
       302       301       313       315       302       301       313       316
       303       301       313       314       303       301       313       315
       303       301       313       316       304       307       308       309
       304       307       308       310       305       304       307       308
       306       304       307       308       307       308       310       311
       307       308       310       312       307       308       310       360
       308       310       360       361       308       310       360       362
       308       310       360       363       309       308       310       311
       309       308       310       312       309       308       310       360
       310       360       363       364       310       360       363       365
       310       360       363       366       311       310       360       361
       311       310       360       362       311       310       360       363
       312       310       360       361       312       310       360       362
       312       310       360       363       313       316       319       320
       313       316       319       321       313       316       319       322
       314       313       316       317       314       313       316       318
       314       313       316       319       315       313       316       317
       315       313       316       318       315       313       316       319
       316       319       322       323       316       319       322       324
       316       319       322       325       317       316       319       320
       317       316       319       321       317       316       319       322
       318       316       319       320       318       316       319       321
       318       316       319       322       319       322       325       326
       319       322       325       327       319       322       325       328
       320       319       322       323       320       319       322       324
       320       319       322       325       321       319       322       323
       321       319       322       324       321       319       322       325
       322       325       328       329       322       325       328       330
       322       325       328       331       323       322       325       326
       323       322       325       327       323       322       325       328
       324       322       325       326       324       322       325       327
       324       322       325       328       325       328       331       332
       325       328       331       333       326       325       328       329
       326       325       328       330       326       325       328       331
       327       325       328       329       327       325       328       330
       327       325       328       331       328       331       333       334
       328       331       333       335       329       328       331       332
       329       328       331       333       330       328       331       332
       330       328       331       333       331       333       335       336
       331       333       335       337       331       333       335       338
       332       331       333       334       332       331       333       335
       333       335       338       339       333       335       338       340
       333       335       338       341       334       333       335       336
       334       333       335       337       334       333       335       338
       335       338       341       342       335       338       341       343
       335       338       341       344       336       335       338       339
       336       335       338       340       336       335       338       341
       337       335       338       339       337       335       338       340
       337       335       338       341       338       341       344       345
       338       341       344       346       338       341       344       347
       339       338       341       342       339       338       341       343
       339       338       341       344       340       338       341       342
       340       338       341       343       340       338       341       344
       341       344       347       348       341       344       347       349
       341       344       347       350       342       341       344       345
       342       341       344       346       342       341       344       347
       343       341       344       345       343       341       344       346
       343       341       344       347       344       347       350       351
       344       347       350       352       344       347       350       353
       345       344       347       348       345       344       347       349
       345       344       347       350       346       344       347       348
       346       344       347       349       346       344       347       350
       347       350       353       354       347       350       353       355
       347       350       353       356       348       347       350       351
       348       347       350       352       348       347       350       353
       349       347       350       351       349       347       350       352
       349       347       350       353       350       353       356       357
       350       353       356       358       350       353       356       359
       351       350       353       354       351       350       353       355
       351       350       353       356       352       350       353       354
       352       350       353       355       352       350       353       356
       354       353       356       357       354       353       356       358
       354       353       356       359       355       353       356       357
       355       353       356       358       355       353       356       359
       360       363       366       367       360       363       366       368
       360       363       366       369       361       360       363       364
       361       360       363       365       361       360       363       366
       362       360       363       364       362       360       363       365
       362       360       363       366       363       366       369       370
       363       366       369       371       363       366       369       372
       364       363       366       367       364       363       366       368
       364       363       366       369       365       363       366       367
       365       363       366       368       365       363       366       369
       366       369       372       373       366       369       372       374
       366       369       372       375       367       366       369       370
       367       366       369       371       367       366       369       372
       368       366       369       370       368       366       369       371
       368       366       369       372       369       372       375       376
       369       372       375       377       369       372       375       378
       370       369       372       373       370       369       372       374
       370       369       372       375       371       369       372       373
       371       369       372       374       371       369       372       375
       372       375       378       379       372       375       378       380
       372       375       378       381       373       372       375       376
       373       372       375       377       373       372       375       378
       374       372       375       376       374       372       375       377
       374       372       375       378       375       378       381       382
       375       378       381       383       375       378       381       384
       376       375       378       379       376       375       378       380
       376       375       378       381       377       375       378       379
       377       375       378       380       377       375       378       381
       378       381       384       385       378       381       384       386
       378       381       384       387       379       378       381       382
       379       378       381       383       379       378       381       384
       380       378       381       382       380       378       381       383
       380       378       381       384       381       384       387       388
       381       384       387       389       381       384       387       390
       382       381       384       385       382       381       384       386
       382       381       384       387       383       381       384       385
       383       381       384       386       383       381       384       387
       384       387       390       391       384       387       390       392
       384       387       390       393       385       384       387       388
       385       384       387       389       385       384       387       390
       386       384       387       388       386       384       387       389
       386       384       387       390       387       390       393       394
       387       390       393       395       387       390       393       396
       388       387       390       391       388       387       390       392
       388       387       390       393       389       387       390       391
       389       387       390       392       389       387       390       393
       390       393       396       397       390       393       396       398
       390       393       396       399       391       390       393       394
       391       390       393       395       391       390       393       396
       392       390       393       394       392       390       393       395
       392       390       393       396       393       396       399       400
       393       396       399       401       393       396       399       402
       394       393       396       397       394       393       396       398
       394       393       396       399       395       393       396       397
       395       393       396       398       395       393       396       399
       397       396       399       400       397       396       399       401
       397       396       399       402       398       396       399       400
       398       396       399       401       398       396       399       402
       403       404       419       420       403       404       419       421
       403       404       419       425       404       403       407       408
       404       403       407       409       404       403       407       410
       404       403       411       412       404       403       411       413
       404       403       411       414       404       403       415       416
       404       403       415       417       404       403       415       418
       404       419       425       422       405       404       403       407
       405       404       403       411       405       404       403       415
       405       404       419       420       405       404       419       421
       405       404       419       425       406       404       403       407
       406       404       403       411       406       404       403       415
       406       404       419       420       406       404       419       421
       406       404       419       425       407       403       404       419
       407       403       411       412       407       403       411       413
       407       403       411       414       407       403       415       416
       407       403       415       417       407       403       415       418
       408       407       403       411       408       407       403       415
       409       407       403       411       409       407       403       415
       410       407       403       411       410       407       403       415
       411       403       404       419       411       403       415       416
       411       403       415       417       411       403       415       418
       412       411       403       415       413       411       403       415
       414       411       403       415       415       403       404       419
       419       425       422       423       419       425       422       424
       419       425       422       426       420       419       425       422
       421       419       425       422       422       426       427       428
       422       426       427       429       422       426       427       430
       423       422       426       427       424       422       426       427
       425       422       426       427       426       427       430       431
       426       427       430       432       426       427       430       438
       427       430       432       433       427       430       438       439
       427       430       438       440       427       430       438       441
       428       427       430       431       428       427       430       432
       428       427       430       438       429       427       430       431
       429       427       430       432       429       427       430       438
       430       432       433       434       430       432       433       435
       430       438       441       442       431       430       432       433
       431       430       438       439       431       430       438       440
       431       430       438       441       432       430       438       439
       432       430       438       440       432       430       438       441
       432       433       435       436       432       433       435       437
       432       433       435       447       433       432       430       438
       433       435       447       448       433       435       447       449
       433       435       447       450       434       433       435       436
       434       433       435       437       434       433       435       447
       435       447       450       451       435       447       450       452
       435       447       450       453       436       435       447       448
       436       435       447       449       436       435       447       450
       437       435       447       448       437       435       447       449
       437       435       447       450       438       441       442       443
       438       441       442       444       439       438       441       442
       440       438       441       442       441       442       444       445
       441       442       444       446       441       442       444       494
       442       444       494       495       442       444       494       496
       442       444       494       497       443       442       444       445
       443       442       444       446       443       442       444       494
       444       494       497       498       444       494       497       499
       444       494       497       500       445       444       494       495
       445       444       494       496       445       444       494       497
       446       444       494       495       446       444       494       496
       446       444       494       497       447       450       453       454
       447       450       453       455       447       450       453       456
       448       447       450       451       448       447       450       452
       448       447       450       453       449       447       450       451
       449       447       450       452       449       447       450       453
       450       453       456       457       450       453       456       458
       450       453       456       459       451       450       453       454
       451       450       453       455       451       450       453       456
       452       450       453       454       452       450       453       455
       452       450       453       456       453       456       459       460
       453       456       459       461       453       456       459       462
       454       453       456       457       454       453       456       458
       454       453       456       459       455       453       456       457
       455       453       456       458       455       453       456       459
       456       459       462       463       456       459       462       464
       456       459       462       465       457       456       459       460
       457       456       459       461       457       456       459       462
       458       456       459       460       458       456       459       461
       458       456       459       462       459       462       465       466
       459       462       465       467       460       459       462       463
       460       459       462       464       460       459       462       465
       461       459       462       463       461       459       462       464
       461       459       462       465       462       465       467       468
       462       465       467       469       463       462       465       466
       463       462       465       467       464       462       465       466
       464       462       465       467       465       467       469       470
       465       467       469       471       465       467       469       472
       466       465       467       468       466       465       467       469
       467       469       472       473       467       469       472       474
       467       469       472       475       468       467       469       470
       468       467       469       471       468       467       469       472
       469       472       475       476       469       472       475       477
       469       472       475       478       470       469       472       473
       470       469       472       474       470       469       472       475
       471       469       472       473       471       469       472       474
       471       469       472       475       472       475       478       479
       472       475       478       480       472       475       478       481
       473       472       475       476       473       472       475       477
       473       472       475       478       474       472       475       476
       474       472       475       477       474       472       475       478
       475       478       481       482       475       478       481       483
       475       478       481       484       476       475       478       479
       476       475       478       480       476       475       478       481
       477       475       478       479       477       475       478       480
       477       475       478       481       478       481       484       485
       478       481       484       486       478       481       484       487
       479       478       481       482       479       478       481       483
       479       478       481       484       480       478       481       482
       480       478       481       483       480       478       481       484
       481       484       487       488       481       484       487       489
       481       484       487       490       482       481       484       485
       482       481       484       486       482       481       484       487
       483       481       484       485       483       481       484       486
       483       481       484       487       484       487       490       491
       484       487       490       492       484       487       490       493
       485       484       487       488       485       484       487       489
       485       484       487       490       486       484       487       488
       486       484       487       489       486       484       487       490
       488       487       490       491       488       487       490       492
       488       487       490       493       489       487       490       491
       489       487       490       492       489       487       490       493
       494       497       500       501       494       497       500       502
       494       497       500       503       495       494       497       498
       495       494       497       499       495       494       497       500
       496       494       497       498       496       494       497       499
       496       494       497       500       497       500       503       504
       497       500       503       505       497       500       503       506
       498       497       500       501       498       497       500       502
       498       497       500       503       499       497       500       501
       499       497       500       502       499       497       500       503
       500       503       506       507       500       503       506       508
       500       503       506       509       501       500       503       504
       501       500       503       505       501       500       503       506
       502       500       503       504       502       500       503       505
       502       500       503       506       503       506       509       510
       503       506       509       511       503       506       509       512
       504       503       506       507       504       503       506       508
       504       503       506       509       505       503       506       507
       505       503       506       508       505       503       506       509
       506       509       512       513       506       509       512       514
       506       509       512       515       507       506       509       510
       507       506       509       511       507       506       509       512
       508       506       509       510       508       506       509       511
       508       506       509       512       509       512       515       516
       509       512       515       517       509       512       515       518
       510       509       512       513       510       509       512       514
       510       509       512       515       511       509       512       513
       511       509       512       514       511       509       512       515
       512       515       518       519       512       515       518       520
       512       515       518       521       513       512       515       516
       513       512       515       517       513       512       515       518
       514       512       515       516       514       512       515       517
       514       512       515       518       515       518       521       522
       515       518       521       523       515       518       521       524
       516       515       518       519       516       515       518       520
       516       515       518       521       517       515       518       519
       517       515       518       520       517       515       518       521
       518       521       524       525       518       521       524       526
       518       521       524       527       519       518       521       522
       519       518       521       523       519       518       521       524
       520       518       521       522       520       518       521       523
       520       518       521       524       521       524       527       528
       521       524       527       529       521       524       527       530
       522       521       524       525       522       521       524       526
       522       521       524       527       523       521       524       525
       523       521       524       526       523       521       524       527
       524       527       530       531       524       527       530       532
       524       527       530       533       525       524       527       528
       525       524       527       529       525       524       527       530
       526       524       527       528       526       524       527       529
       526       524       527       530       527       530       533       534
       527       530       533       535       527       530       533       536
       528       527       530       531       528       527       530       532
       528       527       530       533       529       527       530       531
       529       527       530       532       529       527       530       533
       531       530       533       534       531       530       533       535
       531       530       533       536       532       530       533       534
       532       530       533       535       532       530       533       536
       537       538       553       554       537       538       553       555
       537       538       553       559       538       537       541       542
       538       537       541       543       538       537       541       544
       538       537       545       546       538       537       545       547
       538       537       545       548       538       537       549       550
       538       537       549       551       538       537       549       552
       538       553       559       556       539       538       537       541
       539       538       537       545       539       538       537       549
       539       538       553       554       539       538       553       555
       539       538       553       559       540       538       537       541
       540       538       537       545       540       538       537       549
       540       538       553       554       540       538       553       555
       540       538       553       559       541       537       538       553
       541       537       545       546       541       537       545       547
       541       537       545       548       541       537       549       550
       541       537       549       551       541       537       549       552
       542       541       537       545       542       541       537       549
       543       541       537       545       543       541       537       549
       544       541       537       545       544       541       537       549
       545       537       538       553       545       537       549       550
       545       537       549       551       545       537       549       552
       546       545       537       549       547       545       537       549
       548       545       537       549       549       537       538       553
       553       559       556       557       553       559       556       558
       553       559       556       560       554       553       559       556
       555       553       559       556       556       560       561       562
       556       560       561       563       556       560       561       564
       557       556       560       561       558       556       560       561
       559       556       560       561       560       561       564       565
       560       561       564       566       560       561       564       572
       561       564       566       567       561       564       572       573
       561       564       572       574       561       564       572       575
       562       561       564       565       562       561       564       566
       562       561       564       572       563       561       564       565
       563       561       564       566       563       561       564       572
       564       566       567       568       564       566       567       569
       564       572       575       576       565       564       566       567
       565       564       572       573       565       564       572       574
       565       564       572       575       566       564       572       573
       566       564       572       574       566       564       572       575
       566       567       569       570       566       567       569       571
       566       567       569       581       567       566       564       572
       567       569       581       582       567       569       581       583
       567       569       581       584       568       567       569       570
       568       567       569       571       568       567       569       581
       569       581       584       585       569       581       584       586
       569       581       584       587       570       569       581       582
       570       569       581       583       570       569       581       584
       571       569       581       582       571       569       581       583
       571       569       581       584       572       575       576       577
       572       575       576       578       573       572       575       576
       574       572       575       576       575       576       578       579
       575       576       578       580       575       576       578       628
       576       578       628       629       576       578       628       630
       576       578       628       631       577       576       578       579
       577       576       578       580       577       576       578       628
       578       628       631       632       578       628       631       633
       578       628       631       634       579       578       628       629
       579       578       628       630       579       578       628       631
       580       578       628       629       580       578       628       630
       580       578       628       631       581       584       587       588
       581       584       587       589       581       584       587       590
       582       581       584       585       582       581       584       586
       582       581       584       587       583       581       584       585
       583       581       584       586       583       581       584       587
       584       587       590       591       584       587       590       592
       584       587       590       593       585       584       587       588
       585       584       587       589       585       584       587       590
       586       584       587       588       586       584       587       589
       586       584       587       590       587       590       593       594
       587       590       593       595       587       590       593       596
       588       587       590       591       588       587       590       592
       588       587       590       593       589       587       590       591
       589       587       590       592       589       587       590       593
       590       593       596       597       590       593       596       598
       590       593       596       599       591       590       593       594
       591       590       593       595       591       590       593       596
       592       590       593       594       592       590       593       595
       592       590       593       596       593       596       599       600
       593       596       599       601       594       593       596       597
       594       593       596       598       594       593       596       599
       595       593       596       597       595       593       596       598
       595       593       596       599       596       599       601       602
       596       599       601       603       597       596       599       600
       597       596       599       601       598       596       599       600
       598       596       599       601       599       601       603       604
       599       601       603       605       599       601       603       606
       600       599       601       602       600       599       601       603
       601       603       606       607       601       603       606       608
       601       603       606       609       602       601       603       604
       602       601       603       605       602       601       603       606
       603       606       609       610       603       606       609       611
       603       606       609       612       604       603       606       607
       604       603       606       608       604       603       606       609
       605       603       606       607       605       603       606       608
       605       603       606       609       606       609       612       613
       606       609       612       614       606       609       612       615
       607       606       609       610       607       606       609       611
       607       606       609       612       608       606       609       610
       608       606       609       611       608       606       609       612
       609       612       615       616       609       612       615       617
       609       612       615       618       610       609       612       613
       610       609       612       614       610       609       612       615
       611       609       612       613       611       609       612       614
       611       609       612       615       612       615       618       619
       612       615       618       620       612       615       618       621
       613       612       615       616       613       612       615       617
       613       612       615       618       614       612       615       616
       614       612       615       617       614       612       615       618
       615       618       621       622       615       618       621       623
       615       618       621       624       616       615       618       619
       616       615       618       620       616       615       618       621
       617       615       618       619       617       615       618       620
       617       615       618       621       618       621       624       625
       618       621       624       626       618       621       624       627
       619       618       621       622       619       618       621       623
       619       618       621       624       620       618       621       622
       620       618       621       623       620       618       621       624
       622       621       624       625       622       621       624       626
       622       621       624       627       623       621       624       625
       623       621       624       626       623       621       624       627
       628       631       634       635       628       631       634       636
       628       631       634       637       629       628       631       632
       629       628       631       633       629       628       631       634
       630       628       631       632       630       628       631       633
       630       628       631       634       631       634       637       638
       631       634       637       639       631       634       637       640
       632       631       634       635       632       631       634       636
       632       631       634       637       633       631       634       635
       633       631       634       636       633       631       634       637
       634       637       640       641       634       637       640       642
       634       637       640       643       635       634       637       638
       635       634       637       639       635       634       637       640
       636       634       637       638       636       634       637       639
       636       634       637       640       637       640       643       644
       637       640       643       645       637       640       643       646
       638       637       640       641       638       637       640       642
       638       637       640       643       639       637       640       641
       639       637       640       642       639       637       640       643
       640       643       646       647       640       643       646       648
       640       643       646       649       641       640       643       644
       641       640       643       645       641       640       643       646
       642       640       643       644       642       640       643       645
       642       640       643       646       643       646       649       650
       643       646       649       651       643       646       649       652
       644       643       646       647       644       643       646       648
       644       643       646       649       645       643       646       647
       645       643       646       648       645       643       646       649
       646       649       652       653       646       649       652       654
       646       649       652       655       647       646       649       650
       647       646       649       651       647       646       649       652
       648       646       649       650       648       646       649       651
       648       646       649       652       649       652       655       656
       649       652       655       657       649       652       655       658
       650       649       652       653       650       649       652       654
       650       649       652       655       651       649       652       653
       651       649       652       654       651       649       652       655
       652       655       658       659       652       655       658       660
       652       655       658       661       653       652       655       656
       653       652       655       657       653       652       655       658
       654       652       655       656       654       652       655       657
       654       652       655       658       655       658       661       662
       655       658       661       663       655       658       661       664
       656       655       658       659       656       655       658       660
       656       655       658       661       657       655       658       659
       657       655       658       660       657       655       658       661
       658       661       664       665       658       661       664       666
       658       661       664       667       659       658       661       662
       659       658       661       663       659       658       661       664
       660       658       661       662       660       658       661       663
       660       658       661       664       661       664       667       668
       661       664       667       669       661       664       667       670
       662       661       664       665       662       661       664       666
       662       661       664       667       663       661       664       665
       663       661       664       666       663       661       664       667
       665       664       667       668       665       664       667       669
       665       664       667       670       666       664       667       668
       666       664       667       669       666       664       667       670
       671       675       677       678       671       675       677       679
       671       675       680       681       671       675       680       682
       671       675       680       686       672       671       675       676
       672       671       675       677       672       671       675       680
       673       671       675       676       673       671       675       677
       673       671       675       680       674       671       675       676
       674       671       675       677       674       671       675       680
       675       680       686       683       676       675       677       678
       676       675       677       679       676       675       680       681
       676       675       680       682       676       675       680       686
       677       675       680       681       677       675       680       682
       677       675       680       686       678       677       675       680
       679       677       675       680       680       686       683       684
       680       686       683       685       680       686       683       687
       681       680       686       683       682       680       686       683
       683       687       688       689       683       687       688       690
       683       687       688       691       684       683       687       688
       685       683       687       688       686       683       687       688
       687       688       691       692       687       688       691       693
       687       688       691       699       688       691       693       694
       688       691       699       700       688       691       699       701
       688       691       699       702       689       688       691       692
       689       688       691       693       689       688       691       699
       690       688       691       692       690       688       691       693
       690       688       691       699       691       693       694       695
       691       693       694       696       691       699       702       703
       692       691       693       694       692       691       699       700
       692       691       699       701       692       691       699       702
       693       691       699       700       693       691       699       701
       693       691       699       702       693       694       696       697
       693       694       696       698       693       694       696       708
       694       693       691       699       694       696       708       709
       694       696       708       710       694       696       708       711
       695       694       696       697       695       694       696       698
       695       694       696       708       696       708       711       712
       696       708       711       713       696       708       711       714
       697       696       708       709       697       696       708       710
       697       696       708       711       698       696       708       709
       698       696       708       710       698       696       708       711
       699       702       703       704       699       702       703       705
       700       699       702       703       701       699       702       703
       702       703       705       706       702       703       705       707
       702       703       705       755       703       705       755       756
       703       705       755       757       703       705       755       758
       704       703       705       706       704       703       705       707
       704       703       705       755       705       755       758       759
       705       755       758       760       705       755       758       761
       706       705       755       756       706       705       755       757
       706       705       755       758       707       705       755       756
       707       705       755       757       707       705       755       758
       708       711       714       715       708       711       714       716
       708       711       714       717       709       708       711       712
       709       708       711       713       709       708       711       714
       710       708       711       712       710       708       711       713
       710       708       711       714       711       714       717       718
       711       714       717       719       711       714       717       720
       712       711       714       715       712       711       714       716
       712       711       714       717       713       711       714       715
       713       711       714       716       713       711       714       717
       714       717       720       721       714       717       720       722
       714       717       720       723       715       714       717       718
       715       714       717       719       715       714       717       720
       716       714       717       718       716       714       717       719
       716       714       717       720       717       720       723       724
       717       720       723       725       717       720       723       726
       718       717       720       721       718       717       720       722
       718       717       720       723       719       717       720       721
       719       717       720       722       719       717       720       723
       720       723       726       727       720       723       726       728
       721       720       723       724       721       720       723       725
       721       720       723       726       722       720       723       724
       722       720       723       725       722       720       723       726
       723       726       728       729       723       726       728       730
       724       723       726       727       724       723       726       728
       725       723       726       727       725       723       726       728
       726       728       730       731       726       728       730       732
       726       728       730       733       727       726       728       729
       727       726       728       730       728       730       733       734
       728       730       733       735       728       730       733       736
       729       728       730       731       729       728       730       732
       729       728       730       733       730       733       736       737
       730       733       736       738       730       733       736       739
       731       730       733       734       731       730       733       735
       731       730       733       736       732       730       733       734
       732       730       733       735       732       730       733       736
       733       736       739       740       733       736       739       741
       733       736       739       742       734       733       736       737
       734       733       736       738       734       733       736       739
       735       733       736       737       735       733       736       738
       735       733       736       739       736       739       742       743
       736       739       742       744       736       739       742       745
       737       736       739       740       737       736       739       741
       737       736       739       742       738       736       739       740
       738       736       739       741       738       736       739       742
       739       742       745       746       739       742       745       747
       739       742       745       748       740       739       742       743
       740       739       742       744       740       739       742       745
       741       739       742       743       741       739       742       744
       741       739       742       745       742       745       748       749
       742       745       748       750       742       745       748       751
       743       742       745       746       743       742       745       747
       743       742       745       748       744       742       745       746
       744       742       745       747       744       742       745       748
       745       748       751       752       745       748       751       753
       745       748       751       754       746       745       748       749
       746       745       748       750       746       745       748       751
       747       745       748       749       747       745       748       750
       747       745       748       751       749       748       751       752
       749       748       751       753       749       748       751       754
       750       748       751       752       750       748       751       753
       750       748       751       754       755       758       761       762
       755       758       761       763       755       758       761       764
       756       755       758       759       756       755       758       760
       756       755       758       761       757       755       758       759
       757       755       758       760       757       755       758       761
       758       761       764       765       758       761       764       766
       758       761       764       767       759       758       761       762
       759       758       761       763       759       758       761       764
       760       758       761       762       760       758       761       763
       760       758       761       764       761       764       767       768
       761       764       767       769       761       764       767       770
       762       761       764       765       762       761       764       766
       762       761       764       767       763       761       764       765
       763       761       764       766       763       761       764       767
       764       767       770       771       764       767       770       772
       764       767       770       773       765       764       767       768
       765       764       767       769       765       764       767       770
       766       764       767       768       766       764       767       769
       766       764       767       770       767       770       773       774
       767       770       773       775       767       770       773       776
       768       767       770       771       768       767       770       772
       768       767       770       773       769       767       770       771
       769       767       770       772       769       767       770       773
       770       773       776       777       770       773       776       778
       770       773       776       779       771       770       773       774
       771       770       773       775       771       770       773       776
       772       770       773       774       772       770       773       775
       772       770       773       776       773       776       779       780
       773       776       779       781       773       776       779       782
       774       773       776       777       774       773       776       778
       774       773       776       779       775       773       776       777
       775       773       776       778       775       773       776       779
       776       779       782       783       776       779       782       784
       776       779       782       785       777       776       779       780
       777       776       779       781       777       776       779       782
       778       776       779       780       778       776       779       781
       778       776       779       782       779       782       785       786
       779       782       785       787       779       782       785       788
       780       779       782       783       780       779       782       784
       780       779       782       785       781       779       782       783
       781       779       782       784       781       779       782       785
       782       785       788       789       782       785       788       790
       782       785       788       791       783       782       785       786
       783       782       785       787       783       782       785       788
       784       782       785       786       784       782       785       787
       784       782       785       788       785       788       791       792
       785       788       791       793       785       788       791       794
       786       785       788       789       786       785       788       790
       786       785       788       791       787       785       788       789
       787       785       788       790       787       785       788       791
       788       791       794       795       788       791       794       796
       788       791       794       797       789       788       791       792
       789       788       791       793       789       788       791       794
       790       788       791       792       790       788       791       793
       790       788       791       794       792       791       794       795
       792       791       794       796       792       791       794       797
       793       791       794       795       793       791       794       796
       793       791       794       797       798       799       814       815
       798       799       814       816       798       799       814       820
       799       798       802       803       799       798       802       804
       799       798       802       805       799       798       806       807
       799       798       806       808       799       798       806       809
       799       798       810       811       799       798       810       812
       799       798       810       813       799       814       820       817
       800       799       798       802       800       799       798       806
       800       799       798       810       800       799       814       815
       800       799       814       816       800       799       814       820
       801       799       798       802       801       799       798       806
       801       799       798       810       801       799       814       815
       801       799       814       816       801       799       814       820
       802       798       799       814       802       798       806       807
       802       798       806       808       802       798       806       809
       802       798       810       811       802       798       810       812
       802       798       810       813       803       802       798       806
       803       802       798       810       804       802       798       806
       804       802       798       810       805       802       798       806
       805       802       798       810       806       798       799       814
       806       798       810       811       806       798       810       812
       806       798       810       813       807       806       798       810
       808       806       798       810       809       806       798       810
       810       798       799       814       814       820       817       818
       814       820       817       819       814       820       817       821
       815       814       820       817       816       814       820       817
       817       821       822       823       817       821       822       824
       817       821       822       825       818       817       821       822
       819       817       821       822       820       817       821       822
       821       822       825       826       821       822       825       827
       821       822       825       833       822       825       827       828
       822       825       833       834       822       825       833       835
       822       825       833       836       823       822       825       826
       823       822       825       827       823       822       825       833
       824       822       825       826       824       822       825       827
       824       822       825       833       825       827       828       829
       825       827       828       830       825       833       836       837
       826       825       827       828       826       825       833       834
       826       825       833       835       826       825       833       836
       827       825       833       834       827       825       833       835
       827       825       833       836       827       828       830       831
       827       828       830       832       827       828       830       842
       828       827       825       833       828       830       842       843
       828       830       842       844       828       830       842       845
       829       828       830       831       829       828       830       832
       829       828       830       842       830       842       845       846
       830       842       845       847       830       842       845       848
       831       830       842       843       831       830       842       844
       831       830       842       845       832       830       842       843
       832       830       842       844       832       830       842       845
       833       836       837       838       833       836       837       839
       834       833       836       837       835       833       836       837
       836       837       839       840       836       837       839       841
       836       837       839       889       837       839       889       890
       837       839       889       891       837       839       889       892
       838       837       839       840       838       837       839       841
       838       837       839       889       839       889       892       893
       839       889       892       894       839       889       892       895
       840       839       889       890       840       839       889       891
       840       839       889       892       841       839       889       890
       841       839       889       891       841       839       889       892
       842       845       848       849       842       845       848       850
       842       845       848       851       843       842       845       846
       843       842       845       847       843       842       845       848
       844       842       845       846       844       842       845       847
       844       842       845       848       845       848       851       852
       845       848       851       853       845       848       851       854
       846       845       848       849       846       845       848       850
       846       845       848       851       847       845       848       849
       847       845       848       850       847       845       848       851
       848       851       854       855       848       851       854       856
       848       851       854       857       849       848       851       852
       849       848       851       853       849       848       851       854
       850       848       851       852       850       848       851       853
       850       848       851       854       851       854       857       858
       851       854       857       859       851       854       857       860
       852       851       854       855       852       851       854       856
       852       851       854       857       853       851       854       855
       853       851       854       856       853       851       854       857
       854       857       860       861       854       857       860       862
       855       854       857       858       855       854       857       859
       855       854       857       860       856       854       857       858
       856       854       857       859       856       854       857       860
       857       860       862       863       857       860       862       864
       858       857       860       861       858       857       860       862
       859       857       860       861       859       857       860       862
       860       862       864       865       860       862       864       866
       860       862       864       867       861       860       862       863
       861       860       862       864       862       864       867       868
       862       864       867       869       862       864       867       870
       863       862       864       865       863       862       864       866
       863       862       864       867       864       867       870       871
       864       867       870       872       864       867       870       873
       865       864       867       868       865       864       867       869
       865       864       867       870       866       864       867       868
       866       864       867       869       866       864       867       870
       867       870       873       874       867       870       873       875
       867       870       873       876       868       867       870       871
       868       867       870       872       868       867       870       873
       869       867       870       871       869       867       870       872
       869       867       870       873       870       873       876       877
       870       873       876       878       870       873       876       879
       871       870       873       874       871       870       873       875
       871       870       873       876       872       870       873       874
       872       870       873       875       872       870       873       876
       873       876       879       880       873       876       879       881
       873       876       879       882       874       873       876       877
       874       873       876       878       874       873       876       879
       875       873       876       877       875       873       876       878
       875       873       876       879       876       879       882       883
       876       879       882       884       876       879       882       885
       877       876       879       880       877       876       879       881
       877       876       879       882       878       876       879       880
       878       876       879       881       878       876       879       882
       879       882       885       886       879       882       885       887
       879       882       885       888       880       879       882       883
       880       879       882       884       880       879       882       885
       881       879       882       883       881       879       882       884
       881       879       882       885       883       882       885       886
       883       882       885       887       883       882       885       888
       884       882       885       886       884       882       885       887
       884       882       885       888       889       892       895       896
       889       892       895       897       889       892       895       898
       890       889       892       893       890       889       892       894
       890       889       892       895       891       889       892       893
       891       889       892       894       891       889       892       895
       892       895       898       899       892       895       898       900
       892       895       898       901       893       892       895       896
       893       892       895       897       893       892       895       898
       894       892       895       896       894       892       895       897
       894       892       895       898       895       898       901       902
       895       898       901       903       895       898       901       904
       896       895       898       899       896       895       898       900
       896       895       898       901       897       895       898       899
       897       895       898       900       897       895       898       901
       898       901       904       905       898       901       904       906
       898       901       904       907       899       898       901       902
       899       898       901       903       899       898       901       904
       900       898       901       902       900       898       901       903
       900       898       901       904       901       904       907       908
       901       904       907       909       901       904       907       910
       902       901       904       905       902       901       904       906
       902       901       904       907       903       901       904       905
       903       901       904       906       903       901       904       907
       904       907       910       911       904       907       910       912
       904       907       910       913       905       904       907       908
       905       904       907       909       905       904       907       910
       906       904       907       908       906       904       907       909
       906       904       907       910       907       910       913       914
       907       910       913       915       907       910       913       916
       908       907       910       911       908       907       910       912
       908       907       910       913       909       907       910       911
       909       907       910       912       909       907       910       913
       910       913       916       917       910       913       916       918
       910       913       916       919       911       910       913       914
       911       910       913       915       911       910       913       916
       912       910       913       914       912       910       913       915
       912       910       913       916       913       916       919       920
       913       916       919       921       913       916       919       922
       914       913       916       917       914       913       916       918
       914       913       916       919       915       913       916       917
       915       913       916       918       915       913       916       919
       916       919       922       923       916       919       922       924
       916       919       922       925       917       916       919       920
       917       916       919       921       917       916       919       922
       918       916       919       920       918       916       919       921
       918       916       919       922       919       922       925       926
       919       922       925       927       919       922       925       928
       920       919       922       923       920       919       922       924
       920       919       922       925       921       919       922       923
       921       919       922       924       921       919       922       925
       922       925       928       929       922       925       928       930
       922       925       928       931       923       922       925       926
       923       922       925       927       923       922       925       928
       924       922       925       926       924       922       925       927
       924       922       925       928       926       925       928       929
       926       925       928       930       926       925       928       931
       927       925       928       929       927       925       928       930
       927       925       928       931       932       933       948       949
       932       933       948       950       932       933       948       954
       933       932       936       937       933       932       936       938
       933       932       936       939       933       932       940       941
       933       932       940       942       933       932       940       943
       933       932       944       945       933       932       944       946
       933       932       944       947       933       948       954       951
       934       933       932       936       934       933       932       940
       934       933       932       944       934       933       948       949
       934       933       948       950       934       933       948       954
       935       933       932       936       935       933       932       940
       935       933       932       944       935       933       948       949
       935       933       948       950       935       933       948       954
       936       932       933       948       936       932       940       941
       936       932       940       942       936       932       940       943
       936       932       944       945       936       932       944       946
       936       932       944       947       937       936       932       940
       937       936       932       944       938       936       932       940
       938       936       932       944       939       936       932       940
       939       936       932       944       940       932       933       948
       940       932       944       945       940       932       944       946
       940       932       944       947       941       940       932       944
       942       940       932       944       943       940       932       944
       944       932       933       948       948       954       951       952
       948       954       951       953       948       954       951       955
       949       948       954       951       950       948       954       951
       951       955       956       957       951       955       956       958
       951       955       956       959       952       951       955       956
       953       951       955       956       954       951       955       956
       955       956       959       960       955       956       959       961
       955       956       959       967       956       959       961       962
       956       959       967       968       956       959       967       969
       956       959       967       970       957       956       959       960
       957       956       959       961       957       956       959       967
       958       956       959       960       958       956       959       961
       958       956       959       967       959       961       962       963
       959       961       962       964       959       967       970       971
       960       959       961       962       960       959       967       968
       960       959       967       969       960       959       967       970
       961       959       967       968       961       959       967       969
       961       959       967       970       961       962       964       965
       961       962       964       966       961       962       964       976
       962       961       959       967       962       964       976       977
       962       964       976       978       962       964       976       979
       963       962       964       965       963       962       964       966
       963       962       964       976       964       976       979       980
       964       976       979       981       964       976       979       982
       965       964       976       977       965       964       976       978
       965       964       976       979       966       964       976       977
       966       964       976       978       966       964       976       979
       967       970       971       972       967       970       971       973
       968       967       970       971       969       967       970       971
       970       971       973       974       970       971       973       975
       970       971       973      1023       971       973      1023      1024
       971       973      1023      1025       971       973      1023      1026
       972       971       973       974       972       971       973       975
       972       971       973      1023       973      1023      1026      1027
       973      1023      1026      1028       973      1023      1026      1029
       974       973      1023      1024       974       973      1023      1025
       974       973      1023      1026       975       973      1023      1024
       975       973      1023      1025       975       973      1023      1026
       976       979       982       983       976       979       982       984
       976       979       982       985       977       976       979       980
       977       976       979       981       977       976       979       982
       978       976       979       980       978       976       979       981
       978       976       979       982       979       982       985       986
       979       982       985       987       979       982       985       988
       980       979       982       983       980       979       982       984
       980       979       982       985       981       979       982       983
       981       979       982       984       981       979       982       985
       982       985       988       989       982       985       988       990
       982       985       988       991       983       982       985       986
       983       982       985       987       983       982       985       988
       984       982       985       986       984       982       985       987
       984       982       985       988       985       988       991       992
       985       988       991       993       985       988       991       994
       986       985       988       989       986       985       988       990
       986       985       988       991       987       985       988       989
       987       985       988       990       987       985       988       991
       988       991       994       995       988       991       994       996
       989       988       991       992       989       988       991       993
       989       988       991       994       990       988       991       992
       990       988       991       993       990       988       991       994
       991       994       996       997       991       994       996       998
       992       991       994       995       992       991       994       996
       993       991       994       995       993       991       994       996
       994       996       998       999       994       996       998      1000
       994       996       998      1001       995       994       996       997
       995       994       996       998       996       998      1001      1002
       996       998      1001      1003       996       998      1001      1004
       997       996       998       999       997       996       998      1000
       997       996       998      1001       998      1001      1004      1005
       998      1001      1004      1006       998      1001      1004      1007
       999       998      1001      1002       999       998      1001      1003
       999       998      1001      1004      1000       998      1001      1002
      1000       998      1001      1003      1000       998      1001      1004
      1001      1004      1007      1008      1001      1004      1007      1009
      1001      1004      1007      1010      1002      1001      1004      1005
      1002      1001      1004      1006      1002      1001      1004      1007
      1003      1001      1004      1005      1003      1001      1004      1006
      1003      1001      1004      1007      1004      1007      1010      1011
      1004      1007      1010      1012      1004      1007      1010      1013
      1005      1004      1007      1008      1005      1004      1007      1009
      1005      1004      1007      1010      1006      1004      1007      1008
      1006      1004      1007      1009      1006      1004      1007      1010
      1007      1010      1013      1014      1007      1010      1013      1015
      1007      1010      1013      1016      1008      1007      1010      1011
      1008      1007      1010      1012      1008      1007      1010      1013
      1009      1007      1010      1011      1009      1007      1010      1012
      1009      1007      1010      1013      1010      1013      1016      1017
      1010      1013      1016      1018      1010      1013      1016      1019
      1011      1010      1013      1014      1011      1010      1013      1015
      1011      1010      1013      1016      1012      1010      1013      1014
      1012      1010      1013      1015      1012      1010      1013      1016
      1013      1016      1019      1020      1013      1016      1019      1021
      1013      1016      1019      1022      1014      1013      1016      1017
      1014      1013      1016      1018      1014      1013      1016      1019
      1015      1013      1016      1017      1015      1013      1016      1018
      1015      1013      1016      1019      1017      1016      1019      1020
      1017      1016      1019      1021      1017      1016      1019      1022
      1018      1016      1019      1020      1018      1016      1019      1021
      1018      1016      1019      1022      1023      1026      1029      1030
      1023      1026      1029      1031      1023      1026      1029      1032
      1024      1023      1026      1027      1024      1023      1026      1028
      1024      1023      1026      1029      1025      1023      1026      1027
      1025      1023      1026      1028      1025      1023      1026      1029
      1026      1029      1032      1033      1026      1029      1032      1034
      1026      1029      1032      1035      1027      1026      1029      1030
      1027      1026      1029      1031      1027      1026      1029      1032
      1028      1026      1029      1030      1028      1026      1029      1031
      1028      1026      1029      1032      1029      1032      1035      1036
      1029      1032      1035      1037      1029      1032      1035      1038
      1030      1029      1032      1033      1030      1029      1032      1034
      1030      1029      1032      1035      1031      1029      1032      1033
      1031      1029      1032      1034      1031      1029      1032      1035
      1032      1035      1038      1039      1032      1035      1038      1040
      1032      1035      1038      1041      1033      1032      1035      1036
      1033      1032      1035      1037      1033      1032      1035      1038
      1034      1032      1035      1036      1034      1032      1035      1037
      1034      1032      1035      1038      1035      1038      1041      1042
      1035      1038      1041      1043      1035      1038      1041      1044
      1036      1035      1038      1039      1036      1035      1038      1040
      1036      1035      1038      1041      1037      1035      1038      1039
      1037      1035      1038      1040      1037      1035      1038      1041
      1038      1041      1044      1045      1038      1041      1044      1046
      1038      1041      1044      1047      1039      1038      1041      1042
      1039      1038      1041      1043      1039      1038      1041      1044
      1040      1038      1041      1042      1040      1038      1041      1043
      1040      1038      1041      1044      1041      1044      1047      1048
      1041      1044      1047      1049      1041      1044      1047      1050
      1042      1041      1044      1045      1042      1041      1044      1046
      1042      1041      1044      1047      1043      1041      1044      1045
      1043      1041      1044      1046      1043      1041      1044      1047
      1044      1047      1050      1051      1044      1047      1050      1052
      1044      1047      1050      1053      1045      1044      1047      1048
      1045      1044      1047      1049      1045      1044      1047      1050
      1046      1044      1047      1048      1046      1044      1047      1049
      1046      1044      1047      1050      1047      1050      1053      1054
      1047      1050      1053      1055      1047      1050      1053      1056
      1048      1047      1050      1051      1048      1047      1050      1052
      1048      1047      1050      1053      1049      1047      1050      1051
      1049      1047      1050      1052      1049      1047      1050      1053
      1050      1053      1056      1057      1050      1053      1056      1058
      1050      1053      1056      1059      1051      1050      1053      1054
      1051      1050      1053      1055      1051      1050      1053      1056
      1052      1050      1053      1054      1052      1050      1053      1055
      1052      1050      1053      1056      1053      1056      1059      1060
      1053      1056      1059      1061      1053      1056      1059      1062
      1054      1053      1056      1057      1054      1053      1056      1058
      1054      1053      1056      1059      1055      1053      1056      1057
      1055      1053      1056      1058      1055      1053      1056      1059
      1056      1059      1062      1063      1056      1059      1062      1064
      1056      1059      1062      1065      1057      1056      1059      1060
      1057      1056      1059      1061      1057      1056      1059      1062
      1058      1056      1059      1060      1058      1056      1059      1061
      1058      1056      1059      1062      1060      1059      1062      1063
      1060      1059      1062      1064      1060      1059      1062      1065
      1061      1059      1062      1063      1061      1059      1062      1064
      1061      1059      1062      1065      1066      1070      1072      1073
      1066      1070      1072      1074      1066      1070      1075      1076
      1066      1070      1075      1077      1066      1070      1075      1081
      1067      1066      1070      1071      1067      1066      1070      1072
      1067      1066      1070      1075      1068      1066      1070      1071
      1068      1066      1070      1072      1068      1066      1070      1075
      1069      1066      1070      1071      1069      1066      1070      1072
      1069      1066      1070      1075      1070      1075      1081      1078
      1071      1070      1072      1073      1071      1070      1072      1074
      1071      1070      1075      1076      1071      1070      1075      1077
      1071      1070      1075      1081      1072      1070      1075      1076
      1072      1070      1075      1077      1072      1070      1075      1081
      1073      1072      1070      1075      1074      1072      1070      1075
      1075      1081      1078      1079      1075      1081      1078      1080
      1075      1081      1078      1082      1076      1075      1081      1078
      1077      1075      1081      1078      1078      1082      1083      1084
      1078      1082      1083      1085      1078      1082      1083      1086
      1079      1078      1082      1083      1080      1078      1082      1083
      1081      1078      1082      1083      1082      1083      1086      1087
      1082      1083      1086      1088      1082      1083      1086      1094
      1083      1086      1088      1089      1083      1086      1094      1095
      1083      1086      1094      1096      1083      1086      1094      1097
      1084      1083      1086      1087      1084      1083      1086      1088
      1084      1083      1086      1094      1085      1083      1086      1087
      1085      1083      1086      1088      1085      1083      1086      1094
      1086      1088      1089      1090      1086      1088      1089      1091
      1086      1094      1097      1098      1087      1086      1088      1089
      1087      1086      1094      1095      1087      1086      1094      1096
      1087      1086      1094      1097      1088      1086      1094      1095
      1088      1086      1094      1096      1088      1086      1094      1097
      1088      1089      1091      1092      1088      1089      1091      1093
      1088      1089      1091      1103      1089      1088      1086      1094
      1089      1091      1103      1104      1089      1091      1103      1105
      1089      1091      1103      1106      1090      1089      1091      1092
      1090      1089      1091      1093      1090      1089      1091      1103
      1091      1103      1106      1107      1091      1103      1106      1108
      1091      1103      1106      1109      1092      1091      1103      1104
      1092      1091      1103      1105      1092      1091      1103      1106
      1093      1091      1103      1104      1093      1091      1103      1105
      1093      1091      1103      1106      1094      1097      1098      1099
      1094      1097      1098      1100      1095      1094      1097      1098
      1096      1094      1097      1098      1097      1098      1100      1101
      1097      1098      1100      1102      1097      1098      1100      1150
      1098      1100      1150      1151      1098      1100      1150      1152
      1098      1100      1150      1153      1099      1098      1100      1101
      1099      1098      1100      1102      1099      1098      1100      1150
      1100      1150      1153      1154      1100      1150      1153      1155
      1100      1150      1153      1156      1101      1100      1150      1151
      1101      1100      1150      1152      1101      1100      1150      1153
      1102      1100      1150      1151      1102      1100      1150      1152
      1102      1100      1150      1153      1103      1106      1109      1110
      1103      1106      1109      1111      1103      1106      1109      1112
      1104      1103      1106      1107      1104      1103      1106      1108
      1104      1103      1106      1109      1105      1103      1106      1107
      1105      1103      1106      1108      1105      1103      1106      1109
      1106      1109      1112      1113      1106      1109      1112      1114
      1106      1109      1112      1115      1107      1106      1109      1110
      1107      1106      1109      1111      1107      1106      1109      1112
      1108      1106      1109      1110      1108      1106      1109      1111
      1108      1106      1109      1112      1109      1112      1115      1116
      1109      1112      1115      1117      1109      1112      1115      1118
      1110      1109      1112      1113      1110      1109      1112      1114
      1110      1109      1112      1115      1111      1109      1112      1113
      1111      1109      1112      1114      1111      1109      1112      1115
      1112      1115      1118      1119      1112      1115      1118      1120
      1112      1115      1118      1121      1113      1112      1115      1116
      1113      1112      1115      1117      1113      1112      1115      1118
      1114      1112      1115      1116      1114      1112      1115      1117
      1114      1112      1115      1118      1115      1118      1121      1122
      1115      1118      1121      1123      1116      1115      1118      1119
      1116      1115      1118      1120      1116      1115      1118      1121
      1117      1115      1118      1119      1117      1115      1118      1120
      1117      1115      1118      1121      1118      1121      1123      1124
      1118      1121      1123      1125      1119      1118      1121      1122
      1119      1118      1121      1123      1120      1118      1121      1122
      1120      1118      1121      1123      1121      1123      1125      1126
      1121      1123      1125      1127      1121      1123      1125      1128
      1122      1121      1123      1124      1122      1121      1123      1125
      1123      1125      1128      1129      1123      1125      1128      1130
      1123      1125      1128      1131      1124      1123      1125      1126
      1124      1123      1125      1127      1124      1123      1125      1128
      1125      1128      1131      1132      1125      1128      1131      1133
      1125      1128      1131      1134      1126      1125      1128      1129
      1126      1125      1128      1130      1126      1125      1128      1131
      1127      1125      1128      1129      1127      1125      1128      1130
      1127      1125      1128      1131      1128      1131      1134      1135
      1128      1131      1134      1136      1128      1131      1134      1137
      1129      1128      1131      1132      1129      1128      1131      1133
      1129      1128      1131      1134      1130      1128      1131      1132
      1130      1128      1131      1133      1130      1128      1131      1134
      1131      1134      1137      1138      1131      1134      1137      1139
      1131      1134      1137      1140      1132      1131      1134      1135
      1132      1131      1134      1136      1132      1131      1134      1137
      1133      1131      1134      1135      1133      1131      1134      1136
      1133      1131      1134      1137      1134      1137      1140      1141
      1134      1137      1140      1142      1134      1137      1140      1143
      1135      1134      1137      1138      1135      1134      1137      1139
      1135      1134      1137      1140      1136      1134      1137      1138
      1136      1134      1137      1139      1136      1134      1137      1140
      1137      1140      1143      1144      1137      1140      1143      1145
      1137      1140      1143      1146      1138      1137      1140      1141
      1138      1137      1140      1142      1138      1137      1140      1143
      1139      1137      1140      1141      1139      1137      1140      1142
      1139      1137      1140      1143      1140      1143      1146      1147
      1140      1143      1146      1148      1140      1143      1146      1149
      1141      1140      1143      1144      1141      1140      1143      1145
      1141      1140      1143      1146      1142      1140      1143      1144
      1142      1140      1143      1145      1142      1140      1143      1146
      1144      1143      1146      1147      1144      1143      1146      1148
      1144      1143      1146      1149      1145      1143      1146      1147
      1145      1143      1146      1148      1145      1143      1146      1149
      1150      1153      1156      1157      1150      1153      1156      1158
      1150      1153      1156      1159      1151      1150      1153      1154
      1151      1150      1153      1155      1151      1150      1153      1156
      1152      1150      1153      1154      1152      1150      1153      1155
      1152      1150      1153      1156      1153      1156      1159      1160
      1153      1156      1159      1161      1153      1156      1159      1162
      1154      1153      1156      1157      1154      1153      1156      1158
      1154      1153      1156      1159      1155      1153      1156      1157
      1155      1153      1156      1158      1155      1153      1156      1159
      1156      1159      1162      1163      1156      1159      1162      1164
      1156      1159      1162      1165      1157      1156      1159      1160
      1157      1156      1159      1161      1157      1156      1159      1162
      1158      1156      1159      1160      1158      1156      1159      1161
      1158      1156      1159      1162      1159      1162      1165      1166
      1159      1162      1165      1167      1159      1162      1165      1168
      1160      1159      1162      1163      1160      1159      1162      1164
      1160      1159      1162      1165      1161      1159      1162      1163
      1161      1159      1162      1164      1161      1159      1162      1165
      1162      1165      1168      1169      1162      1165      1168      1170
      1162      1165      1168      1171      1163      1162      1165      1166
      1163      1162      1165      1167      1163      1162      1165      1168
      1164      1162      1165      1166      1164      1162      1165      1167
      1164      1162      1165      1168      1165      1168      1171      1172
      1165      1168      1171      1173      1165      1168      1171      1174
      1166      1165      1168      1169      1166      1165      1168      1170
      1166      1165      1168      1171      1167      1165      1168      1169
      1167      1165      1168      1170      1167      1165      1168      1171
      1168      1171      1174      1175      1168      1171      1174      1176
      1168      1171      1174      1177      1169      1168      1171      1172
      1169      1168      1171      1173      1169      1168      1171      1174
      1170      1168      1171      1172      1170      1168      1171      1173
      1170      1168      1171      1174      1171      1174      1177      1178
      1171      1174      1177      1179      1171      1174      1177      1180
      1172      1171      1174      1175      1172      1171      1174      1176
      1172      1171      1174      1177      1173      1171      1174      1175
      1173      1171      1174      1176      1173      1171      1174      1177
      1174      1177      1180      1181      1174      1177      1180      1182
      1174      1177      1180      1183      1175      1174      1177      1178
      1175      1174      1177      1179      1175      1174      1177      1180
      1176      1174      1177      1178      1176      1174      1177      1179
      1176      1174      1177      1180      1177      1180      1183      1184
      1177      1180      1183      1185      1177      1180      1183      1186
      1178      1177      1180      1181      1178      1177      1180      1182
      1178      1177      1180      1183      1179      1177      1180      1181
      1179      1177      1180      1182      1179      1177      1180      1183
      1180      1183      1186      1187      1180      1183      1186      1188
      1180      1183      1186      1189      1181      1180      1183      1184
      1181      1180      1183      1185      1181      1180      1183      1186
      1182      1180      1183      1184      1182      1180      1183      1185
      1182      1180      1183      1186      1183      1186      1189      1190
      1183      1186      1189      1191      1183      1186      1189      1192
      1184      1183      1186      1187      1184      1183      1186      1188
      1184      1183      1186      1189      1185      1183      1186      1187
      1185      1183      1186      1188      1185      1183      1186      1189
      1187      1186      1189      1190      1187      1186      1189      1191
      1187      1186      1189      1192      1188      1186      1189      1190
      1188      1186      1189      1191      1188      1186      1189      1192
      1193      1194      1209      1210      1193      1194      1209      1211
      1193      1194      1209      1215      1194      1193      1197      1198
      1194      1193      1197      1199      1194      1193      1197      1200
      1194      1193      1201      1202      1194      1193      1201      1203
      1194      1193      1201      1204      1194      1193      1205      1206
      1194      1193      1205      1207      1194      1193      1205      1208
      1194      1209      1215      1212      1195      1194      1193      1197
      1195      1194      1193      1201      1195      1194      1193      1205
      1195      1194      1209      1210      1195      1194      1209      1211
      1195      1194      1209      1215      1196      1194      1193      1197
      1196      1194      1193      1201      1196      1194      1193      1205
      1196      1194      1209      1210      1196      1194      1209      1211
      1196      1194      1209      1215      1197      1193      1194      1209
      1197      1193      1201      1202      1197      1193      1201      1203
      1197      1193      1201      1204      1197      1193      1205      1206
      1197      1193      1205      1207      1197      1193      1205      1208
      1198      1197      1193      1201      1198      1197      1193      1205
      1199      1197      1193      1201      1199      1197      1193      1205
      1200      1197      1193      1201      1200      1197      1193      1205
      1201      1193      1194      1209      1201      1193      1205      1206
      1201      1193      1205      1207      1201      1193      1205      1208
      1202      1201      1193      1205      1203      1201      1193      1205
      1204      1201      1193      1205      1205      1193      1194      1209
      1209      1215      1212      1213      1209      1215      1212      1214
      1209      1215      1212      1216      1210      1209      1215      1212
      1211      1209      1215      1212      1212      1216      1217      1218
      1212      1216      1217      1219      1212      1216      1217      1220
      1213      1212      1216      1217      1214      1212      1216      1217
      1215      1212      1216      1217      1216      1217      1220      1221
      1216      1217      1220      1222      1216      1217      1220      1228
      1217      1220      1222      1223      1217      1220      1228      1229
      1217      1220      1228      1230      1217      1220      1228      1231
      1218      1217      1220      1221      1218      1217      1220      1222
      1218      1217      1220      1228      1219      1217      1220      1221
      1219      1217      1220      1222      1219      1217      1220      1228
      1220      1222      1223      1224      1220      1222      1223      1225
      1220      1228      1231      1232      1221      1220      1222      1223
      1221      1220      1228      1229      1221      1220      1228      1230
      1221      1220      1228      1231      1222      1220      1228      1229
      1222      1220      1228      1230      1222      1220      1228      1231
      1222      1223      1225      1226      1222      1223      1225      1227
      1222      1223      1225      1237      1223      1222      1220      1228
      1223      1225      1237      1238      1223      1225      1237      1239
      1223      1225      1237      1240      1224      1223      1225      1226
      1224      1223      1225      1227      1224      1223      1225      1237
      1225      1237      1240      1241      1225      1237      1240      1242
      1225      1237      1240      1243      1226      1225      1237      1238
      1226      1225      1237      1239      1226      1225      1237      1240
      1227      1225      1237      1238      1227      1225      1237      1239
      1227      1225      1237      1240      1228      1231      1232      1233
      1228      1231      1232      1234      1229      1228      1231      1232
      1230      1228      1231      1232      1231      1232      1234      1235
      1231      1232      1234      1236      1231      1232      1234      1284
      1232      1234      1284      1285      1232      1234      1284      1286
      1232      1234      1284      1287      1233      1232      1234      1235
      1233      1232      1234      1236      1233      1232      1234      1284
      1234      1284      1287      1288      1234      1284      1287      1289
      1234      1284      1287      1290      1235      1234      1284      1285
      1235      1234      1284      1286      1235      1234      1284      1287
      1236      1234      1284      1285      1236      1234      1284      1286
      1236      1234      1284      1287      1237      1240      1243      1244
      1237      1240      1243      1245      1237      1240      1243      1246
      1238      1237      1240      1241      1238      1237      1240      1242
      1238      1237      1240      1243      1239      1237      1240      1241
      1239      1237      1240      1242      1239      1237      1240      1243
      1240      1243      1246      1247      1240      1243      1246      1248
      1240      1243      1246      1249      1241      1240      1243      1244
      1241      1240      1243      1245      1241      1240      1243      1246
      1242      1240      1243      1244      1242      1240      1243      1245
      1242      1240      1243      1246      1243      1246      1249      1250
      1243      1246      1249      1251      1243      1246      1249      1252
      1244      1243      1246      1247      1244      1243      1246      1248
      1244      1243      1246      1249      1245      1243      1246      1247
      1245      1243      1246      1248      1245      1243      1246      1249
      1246      1249      1252      1253      1246      1249      1252      1254
      1246      1249      1252      1255      1247      1246      1249      1250
      1247      1246      1249      1251      1247      1246      1249      1252
      1248      1246      1249      1250      1248      1246      1249      1251
      1248      1246      1249      1252      1249      1252      1255      1256
      1249      1252      1255      1257      1250      1249      1252      1253
      1250      1249      1252      1254      1250      1249      1252      1255
      1251      1249      1252      1253      1251      1249      1252      1254
      1251      1249      1252      1255      1252      1255      1257      1258
      1252      1255      1257      1259      1253      1252      1255      1256
      1253      1252      1255      1257      1254      1252      1255      1256
      1254      1252      1255      1257      1255      1257      1259      1260
      1255      1257      1259      1261      1255      1257      1259      1262
      1256      1255      1257      1258      1256      1255      1257      1259
      1257      1259      1262      1263      1257      1259      1262      1264
      1257      1259      1262      1265      1258      1257      1259      1260
      1258      1257      1259      1261      1258      1257      1259      1262
      1259      1262      1265      1266      1259      1262      1265      1267
      1259      1262      1265      1268      1260      1259      1262      1263
      1260      1259      1262      1264      1260      1259      1262      1265
      1261      1259      1262      1263      1261      1259      1262      1264
      1261      1259      1262      1265      1262      1265      1268      1269
      1262      1265      1268      1270      1262      1265      1268      1271
      1263      1262      1265      1266      1263      1262      1265      1267
      1263      1262      1265      1268      1264      1262      1265      1266
      1264      1262      1265      1267      1264      1262      1265      1268
      1265      1268      1271      1272      1265      1268      1271      1273
      1265      1268      1271      1274      1266      1265      1268      1269
      1266      1265      1268      1270      1266      1265      1268      1271
      1267      1265      1268      1269      1267      1265      1268      1270
      1267      1265      1268      1271      1268      1271      1274      1275
      1268      1271      1274      1276      1268      1271      1274      1277
      1269      1268      1271      1272      1269      1268      1271      1273
      1269      1268      1271      1274      1270      1268      1271      1272
      1270      1268      1271      1273      1270      1268      1271      1274
      1271      1274      1277      1278      1271      1274      1277      1279
      1271      1274      1277      1280      1272      1271      1274      1275
      1272      1271      1274      1276      1272      1271      1274      1277
      1273      1271      1274      1275      1273      1271      1274      1276
      1273      1271      1274      1277      1274      1277      1280      1281
      1274      1277      1280      1282      1274      1277      1280      1283
      1275      1274      1277      1278      1275      1274      1277      1279
      1275      1274      1277      1280      1276      1274      1277      1278
      1276      1274      1277      1279      1276      1274      1277      1280
      1278      1277      1280      1281      1278      1277      1280      1282
      1278      1277      1280      1283      1279      1277      1280      1281
      1279      1277      1280      1282      1279      1277      1280      1283
      1284      1287      1290      1291      1284      1287      1290      1292
      1284      1287      1290      1293      1285      1284      1287      1288
      1285      1284      1287      1289      1285      1284      1287      1290
      1286      1284      1287      1288      1286      1284      1287      1289
      1286      1284      1287      1290      1287      1290      1293      1294
      1287      1290      1293      1295      1287      1290      1293      1296
      1288      1287      1290      1291      1288      1287      1290      1292
      1288      1287      1290      1293      1289      1287      1290      1291
      1289      1287      1290      1292      1289      1287      1290      1293
      1290      1293      1296      1297      1290      1293      1296      1298
      1290      1293      1296      1299      1291      1290      1293      1294
      1291      1290      1293      1295      1291      1290      1293      1296
      1292      1290      1293      1294      1292      1290      1293      1295
      1292      1290      1293      1296      1293      1296      1299      1300
      1293      1296      1299      1301      1293      1296      1299      1302
      1294      1293      1296      1297      1294      1293      1296      1298
      1294      1293      1296      1299      1295      1293      1296      1297
      1295      1293      1296      1298      1295      1293      1296      1299
      1296      1299      1302      1303      1296      1299      1302      1304
      1296      1299      1302      1305      1297      1296      1299      1300
      1297      1296      1299      1301      1297      1296      1299      1302
      1298      1296      1299      1300      1298      1296      1299      1301
      1298      1296      1299      1302      1299      1302      1305      1306
      1299      1302      1305      1307      1299      1302      1305      1308
      1300      1299      1302      1303      1300      1299      1302      1304
      1300      1299      1302      1305      1301      1299      1302      1303
      1301      1299      1302      1304      1301      1299      1302      1305
      1302      1305      1308      1309      1302      1305      1308      1310
      1302      1305      1308      1311      1303      1302      1305      1306
      1303      1302      1305      1307      1303      1302      1305      1308
      1304      1302      1305      1306      1304      1302      1305      1307
      1304      1302      1305      1308      1305      1308      1311      1312
      1305      1308      1311      1313      1305      1308      1311      1314
      1306      1305      1308      1309      1306      1305      1308      1310
      1306      1305      1308      1311      1307      1305      1308      1309
      1307      1305      1308      1310      1307      1305      1308      1311
      1308      1311      1314      1315      1308      1311      1314      1316
      1308      1311      1314      1317      1309      1308      1311      1312
      1309      1308      1311      1313      1309      1308      1311      1314
      1310      1308      1311      1312      1310      1308      1311      1313
      1310      1308      1311      1314      1311      1314      1317      1318
      1311      1314      1317      1319      1311      1314      1317      1320
      1312      1311      1314      1315      1312      1311      1314      1316
      1312      1311      1314      1317      1313      1311      1314      1315
      1313      1311      1314      1316      1313      1311      1314      1317
      1314      1317      1320      1321      1314      1317      1320      1322
      1314      1317      1320      1323      1315      1314      1317      1318
      1315      1314      1317      1319      1315      1314      1317      1320
      1316      1314      1317      1318      1316      1314      1317      1319
      1316      1314      1317      1320      1317      1320      1323      1324
      1317      1320      1323      1325      1317      1320      1323      1326
      1318      1317      1320      1321      1318      1317      1320      1322
      1318      1317      1320      1323      1319      1317      1320      1321
      1319      1317      1320      1322      1319      1317      1320      1323
      1321      1320      1323      1324      1321      1320      1323      1325
      1321      1320      1323      1326      1322      1320      1323      1324
      1322      1320      1323      1325      1322      1320      1323      1326
      1327      1331      1333      1334      1327      1331      1333      1335
      1327      1331      1336      1337      1327      1331      1336      1338
      1327      1331      1336      1342      1328      1327      1331      1332
      1328      1327      1331      1333      1328      1327      1331      1336
      1329      1327      1331      1332      1329      1327      1331      1333
      1329      1327      1331      1336      1330      1327      1331      1332
      1330      1327      1331      1333      1330      1327      1331      1336
      1331      1336      1342      1339      1332      1331      1333      1334
      1332      1331      1333      1335      1332      1331      1336      1337
      1332      1331      1336      1338      1332      1331      1336      1342
      1333      1331      1336      1337      1333      1331      1336      1338
      1333      1331      1336      1342      1334      1333      1331      1336
      1335      1333      1331      1336      1336      1342      1339      1340
      1336      1342      1339      1341      1336      1342      1339      1343
      1337      1336      1342      1339      1338      1336      1342      1339
      1339      1343      1344      1345      1339      1343      1344      1346
      1339      1343      1344      1347      1340      1339      1343      1344
      1341      1339      1343      1344      1342      1339      1343      1344
      1343      1344      1347      1348      1343      1344      1347      1349
      1343      1344      1347      1355      1344      1347      1349      1350
      1344      1347      1355      1356      1344      1347      1355      1357
      1344      1347      1355      1358      1345      1344      1347      1348
      1345      1344      1347      1349      1345      1344      1347      1355
      1346      1344      1347      1348      1346      1344      1347      1349
      1346      1344      1347      1355      1347      1349      1350      1351
      1347      1349      1350      1352      1347      1355      1358      1359
      1348      1347      1349      1350      1348      1347      1355      1356
      1348      1347      1355      1357      1348      1347      1355      1358
      1349      1347      1355      1356      1349      1347      1355      1357
      1349      1347      1355      1358      1349      1350      1352      1353
      1349      1350      1352      1354      1349      1350      1352      1364
      1350      1349      1347      1355      1350      1352      1364      1365
      1350      1352      1364      1366      1350      1352      1364      1367
      1351      1350      1352      1353      1351      1350      1352      1354
      1351      1350      1352      1364      1352      1364      1367      1368
      1352      1364      1367      1369      1352      1364      1367      1370
      1353      1352      1364      1365      1353      1352      1364      1366
      1353      1352      1364      1367      1354      1352      1364      1365
      1354      1352      1364      1366      1354      1352      1364      1367
      1355      1358      1359      1360      1355      1358      1359      1361
      1356      1355      1358      1359      1357      1355      1358      1359
      1358      1359      1361      1362      1358      1359      1361      1363
      1358      1359      1361      1411      1359      1361      1411      1412
      1359      1361      1411      1413      1359      1361      1411      1414
      1360      1359      1361      1362      1360      1359      1361      1363
      1360      1359      1361      1411      1361      1411      1414      1415
      1361      1411      1414      1416      1361      1411      1414      1417
      1362      1361      1411      1412      1362      1361      1411      1413
      1362      1361      1411      1414      1363      1361      1411      1412
      1363      1361      1411      1413      1363      1361      1411      1414
      1364      1367      1370      1371      1364      1367      1370      1372
      1364      1367      1370      1373      1365      1364      1367      1368
      1365      1364      1367      1369      1365      1364      1367      1370
      1366      1364      1367      1368      1366      1364      1367      1369
      1366      1364      1367      1370      1367      1370      1373      1374
      1367      1370      1373      1375      1367      1370      1373      1376
      1368      1367      1370      1371      1368      1367      1370      1372
      1368      1367      1370      1373      1369      1367      1370      1371
      1369      1367      1370      1372      1369      1367      1370      1373
      1370      1373      1376      1377      1370      1373      1376      1378
      1370      1373      1376      1379      1371      1370      1373      1374
      1371      1370      1373      1375      1371      1370      1373      1376
      1372      1370      1373      1374      1372      1370      1373      1375
      1372      1370      1373      1376      1373      1376      1379      1380
      1373      1376      1379      1381      1373      1376      1379      1382
      1374      1373      1376      1377      1374      1373      1376      1378
      1374      1373      1376      1379      1375      1373      1376      1377
      1375      1373      1376      1378      1375      1373      1376      1379
      1376      1379      1382      1383      1376      1379      1382      1384
      1377      1376      1379      1380      1377      1376      1379      1381
      1377      1376      1379      1382      1378      1376      1379      1380
      1378      1376      1379      1381      1378      1376      1379      1382
      1379      1382      1384      1385      1379      1382      1384      1386
      1380      1379      1382      1383      1380      1379      1382      1384
      1381      1379      1382      1383      1381      1379      1382      1384
      1382      1384      1386      1387      1382      1384      1386      1388
      1382      1384      1386      1389      1383      1382      1384      1385
      1383      1382      1384      1386      1384      1386      1389      1390
      1384      1386      1389      1391      1384      1386      1389      1392
      1385      1384      1386      1387      1385      1384      1386      1388
      1385      1384      1386      1389      1386      1389      1392      1393
      1386      1389      1392      1394      1386      1389      1392      1395
      1387      1386      1389      1390      1387      1386      1389      1391
      1387      1386      1389      1392      1388      1386      1389      1390
      1388      1386      1389      1391      1388      1386      1389      1392
      1389      1392      1395      1396      1389      1392      1395      1397
      1389      1392      1395      1398      1390      1389      1392      1393
      1390      1389      1392      1394      1390      1389      1392      1395
      1391      1389      1392      1393      1391      1389      1392      1394
      1391      1389      1392      1395      1392      1395      1398      1399
      1392      1395      1398      1400      1392      1395      1398      1401
      1393      1392      1395      1396      1393      1392      1395      1397
      1393      1392      1395      1398      1394      1392      1395      1396
      1394      1392      1395      1397      1394      1392      1395      1398
      1395      1398      1401      1402      1395      1398      1401      1403
      1395      1398      1401      1404      1396      1395      1398      1399
      1396      1395      1398      1400      1396      1395      1398      1401
      1397      1395      1398      1399      1397      1395      1398      1400
      1397      1395      1398      1401      1398      1401      1404      1405
      1398      1401      1404      1406      1398      1401      1404      1407
      1399      1398      1401      1402      1399      1398      1401      1403
      1399      1398      1401      1404      1400      1398      1401      1402
      1400      1398      1401      1403      1400      1398      1401      1404
      1401      1404      1407      1408      1401      1404      1407      1409
      1401      1404      1407      1410      1402      1401      1404      1405
      1402      1401      1404      1406      1402      1401      1404      1407
      1403      1401      1404      1405      1403      1401      1404      1406
      1403      1401      1404      1407      1405      1404      1407      1408
      1405      1404      1407      1409      1405      1404      1407      1410
      1406      1404      1407      1408      1406      1404      1407      1409
      1406      1404      1407      1410      1411      1414      1417      1418
      1411      1414      1417      1419      1411      1414      1417      1420
      1412      1411      1414      1415      1412      1411      1414      1416
      1412      1411      1414      1417      1413      1411      1414      1415
      1413      1411      1414      1416      1413      1411      1414      1417
      1414      1417      1420      1421      1414      1417      1420      1422
      1414      1417      1420      1423      1415      1414      1417      1418
      1415      1414      1417      1419      1415      1414      1417      1420
      1416      1414      1417      1418      1416      1414      1417      1419
      1416      1414      1417      1420      1417      1420      1423      1424
      1417      1420      1423      1425      1417      1420      1423      1426
      1418      1417      1420      1421      1418      1417      1420      1422
      1418      1417      1420      1423      1419      1417      1420      1421
      1419      1417      1420      1422      1419      1417      1420      1423
      1420      1423      1426      1427      1420      1423      1426      1428
      1420      1423      1426      1429      1421      1420      1423      1424
      1421      1420      1423      1425      1421      1420      1423      1426
      1422      1420      1423      1424      1422      1420      1423      1425
      1422      1420      1423      1426      1423      1426      1429      1430
      1423      1426      1429      1431      1423      1426      1429      1432
      1424      1423      1426      1427      1424      1423      1426      1428
      1424      1423      1426      1429      1425      1423      1426      1427
      1425      1423      1426      1428      1425      1423      1426      1429
      1426      1429      1432      1433      1426      1429      1432      1434
      1426      1429      1432      1435      1427      1426      1429      1430
      1427      1426      1429      1431      1427      1426      1429      1432
      1428      1426      1429      1430      1428      1426      1429      1431
      1428      1426      1429      1432      1429      1432      1435      1436
      1429      1432      1435      1437      1429      1432      1435      1438
      1430      1429      1432      1433      1430      1429      1432      1434
      1430      1429      1432      1435      1431      1429      1432      1433
      1431      1429      1432      1434      1431      1429      1432      1435
      1432      1435      1438      1439      1432      1435      1438      1440
      1432      1435      1438      1441      1433      1432      1435      1436
      1433      1432      1435      1437      1433      1432      1435      1438
      1434      1432      1435      1436      1434      1432      1435      1437
      1434      1432      1435      1438      1435      1438      1441      1442
      1435      1438      1441      1443      1435      1438      1441      1444
      1436      1435      1438      1439      1436      1435      1438      1440
      1436      1435      1438      1441      1437      1435      1438      1439
      1437      1435      1438      1440      1437      1435      1438      1441
      1438      1441      1444      1445      1438      1441      1444      1446
      1438      1441      1444      1447      1439      1438      1441      1442
      1439      1438      1441      1443      1439      1438      1441      1444
      1440      1438      1441      1442      1440      1438      1441      1443
      1440      1438      1441      1444      1441      1444      1447      1448
      1441      1444      1447      1449      1441      1444      1447      1450
      1442      1441      1444      1445      1442      1441      1444      1446
      1442      1441      1444      1447      1443      1441      1444      1445
      1443      1441      1444      1446      1443      1441      1444      1447
      1444      1447      1450      1451      1444      1447      1450      1452
      1444      1447      1450      1453      1445      1444      1447      1448
      1445      1444      1447      1449      1445      1444      1447      1450
      1446      1444      1447      1448      1446      1444      1447      1449
      1446      1444      1447      1450      1448      1447      1450      1451
      1448      1447      1450      1452      1448      1447      1450      1453
      1449      1447      1450      1451      1449      1447      1450      1452
      1449      1447      1450      1453      1454      1458      1460      1461
      1454      1458      1460      1462      1454      1458      1463      1464
      1454      1458      1463      1465      1454      1458      1463      1469
      1455      1454      1458      1459      1455      1454      1458      1460
      1455      1454      1458      1463      1456      1454      1458      1459
      1456      1454      1458      1460      1456      1454      1458      1463
      1457      1454      1458      1459      1457      1454      1458      1460
      1457      1454      1458      1463      1458      1463      1469      1466
      1459      1458      1460      1461      1459      1458      1460      1462
      1459      1458      1463      1464      1459      1458      1463      1465
      1459      1458      1463      1469      1460      1458      1463      1464
      1460      1458      1463      1465      1460      1458      1463      1469
      1461      1460      1458      1463      1462      1460      1458      1463
      1463      1469      1466      1467      1463      1469      1466      1468
      1463      1469      1466      1470      1464      1463      1469      1466
      1465      1463      1469      1466      1466      1470      1471      1472
      1466      1470      1471      1473      1466      1470      1471      1474
      1467      1466      1470      1471      1468      1466      1470      1471
      1469      1466      1470      1471      1470      1471      1474      1475
      1470      1471      1474      1476      1470      1471      1474      1482
      1471      1474      1476      1477      1471      1474      1482      1483
      1471      1474      1482      1484      1471      1474      1482      1485
      1472      1471      1474      1475      1472      1471      1474      1476
      1472      1471      1474      1482      1473      1471      1474      1475
      1473      1471      1474      1476      1473      1471      1474      1482
      1474      1476      1477      1478      1474      1476      1477      1479
      1474      1482      1485      1486      1475      1474      1476      1477
      1475      1474      1482      1483      1475      1474      1482      1484
      1475      1474      1482      1485      1476      1474      1482      1483
      1476      1474      1482      1484      1476      1474      1482      1485
      1476      1477      1479      1480      1476      1477      1479      1481
      1476      1477      1479      1491      1477      1476      1474      1482
      1477      1479      1491      1492      1477      1479      1491      1493
      1477      1479      1491      1494      1478      1477      1479      1480
      1478      1477      1479      1481      1478      1477      1479      1491
      1479      1491      1494      1495      1479      1491      1494      1496
      1479      1491      1494      1497      1480      1479      1491      1492
      1480      1479      1491      1493      1480      1479      1491      1494
      1481      1479      1491      1492      1481      1479      1491      1493
      1481      1479      1491      1494      1482      1485      1486      1487
      1482      1485      1486      1488      1483      1482      1485      1486
      1484      1482      1485      1486      1485      1486      1488      1489
      1485      1486      1488      1490      1485      1486      1488      1538
      1486      1488      1538      1539      1486      1488      1538      1540
      1486      1488      1538      1541      1487      1486      1488      1489
      1487      1486      1488      1490      1487      1486      1488      1538
      1488      1538      1541      1542      1488      1538      1541      1543
      1488      1538      1541      1544      1489      1488      1538      1539
      1489      1488      1538      1540      1489      1488      1538      1541
      1490      1488      1538      1539      1490      1488      1538      1540
      1490      1488      1538      1541      1491      1494      1497      1498
      1491      1494      1497      1499      1491      1494      1497      1500
      1492      1491      1494      1495      1492      1491      1494      1496
      1492      1491      1494      1497      1493      1491      1494      1495
      1493      1491      1494      1496      1493      1491      1494      1497
      1494      1497      1500      1501      1494      1497      1500      1502
      1494      1497      1500      1503      1495      1494      1497      1498
      1495      1494      1497      1499      1495      1494      1497      1500
      1496      1494      1497      1498      1496      1494      1497      1499
      1496      1494      1497      1500      1497      1500      1503      1504
      1497      1500      1503      1505      1497      1500      1503      1506
      1498      1497      1500      1501      1498      1497      1500      1502
      1498      1497      1500      1503      1499      1497      1500      1501
      1499      1497      1500      1502      1499      1497      1500      1503
      1500      1503      1506      1507      1500      1503      1506      1508
      1500      1503      1506      1509      1501      1500      1503      1504
      1501      1500      1503      1505      1501      1500      1503      1506
      1502      1500      1503      1504      1502      1500      1503      1505
      1502      1500      1503      1506      1503      1506      1509      1510
      1503      1506      1509      1511      1504      1503      1506      1507
      1504      1503      1506      1508      1504      1503      1506      1509
      1505      1503      1506      1507      1505      1503      1506      1508
      1505      1503      1506      1509      1506      1509      1511      1512
      1506      1509      1511      1513      1507      1506      1509      1510
      1507      1506      1509      1511      1508      1506      1509      1510
      1508      1506      1509      1511      1509      1511      1513      1514
      1509      1511      1513      1515      1509      1511      1513      1516
      1510      1509      1511      1512      1510      1509      1511      1513
      1511      1513      1516      1517      1511      1513      1516      1518
      1511      1513      1516      1519      1512      1511      1513      1514
      1512      1511      1513      1515      1512      1511      1513      1516
      1513      1516      1519      1520      1513      1516      1519      1521
      1513      1516      1519      1522      1514      1513      1516      1517
      1514      1513      1516      1518      1514      1513      1516      1519
      1515      1513      1516      1517      1515      1513      1516      1518
      1515      1513      1516      1519      1516      1519      1522      1523
      1516      1519      1522      1524      1516      1519      1522      1525
      1517      1516      1519      1520      1517      1516      1519      1521
      1517      1516      1519      1522      1518      1516      1519      1520
      1518      1516      1519      1521      1518      1516      1519      1522
      1519      1522      1525      1526      1519      1522      1525      1527
      1519      1522      1525      1528      1520      1519      1522      1523
      1520      1519      1522      1524      1520      1519      1522      1525
      1521      1519      1522      1523      1521      1519      1522      1524
      1521      1519      1522      1525      1522      1525      1528      1529
      1522      1525      1528      1530      1522      1525      1528      1531
      1523      1522      1525      1526      1523      1522      1525      1527
      1523      1522      1525      1528      1524      1522      1525      1526
      1524      1522      1525      1527      1524      1522      1525      1528
      1525      1528      1531      1532      1525      1528      1531      1533
      1525      1528      1531      1534      1526      1525      1528      1529
      1526      1525      1528      1530      1526      1525      1528      1531
      1527      1525      1528      1529      1527      1525      1528      1530
      1527      1525      1528      1531      1528      1531      1534      1535
      1528      1531      1534      1536      1528      1531      1534      1537
      1529      1528      1531      1532      1529      1528      1531      1533
      1529      1528      1531      1534      1530      1528      1531      1532
      1530      1528      1531      1533      1530      1528      1531      1534
      1532      1531      1534      1535      1532      1531      1534      1536
      1532      1531      1534      1537      1533      1531      1534      1535
      1533      1531      1534      1536      1533      1531      1534      1537
      1538      1541      1544      1545      1538      1541      1544      1546
      1538      1541      1544      1547      1539      1538      1541      1542
      1539      1538      1541      1543      1539      1538      1541      1544
      1540      1538      1541      1542      1540      1538      1541      1543
      1540      1538      1541      1544      1541      1544      1547      1548
      1541      1544      1547      1549      1541      1544      1547      1550
      1542      1541      1544      1545      1542      1541      1544      1546
      1542      1541      1544      1547      1543      1541      1544      1545
      1543      1541      1544      1546      1543      1541      1544      1547
      1544      1547      1550      1551      1544      1547      1550      1552
      1544      1547      1550      1553      1545      1544      1547      1548
      1545      1544      1547      1549      1545      1544      1547      1550
      1546      1544      1547      1548      1546      1544      1547      1549
      1546      1544      1547      1550      1547      1550      1553      1554
      1547      1550      1553      1555      1547      1550      1553      1556
      1548      1547      1550      1551      1548      1547      1550      1552
      1548      1547      1550      1553      1549      1547      1550      1551
      1549      1547      1550      1552      1549      1547      1550      1553
      1550      1553      1556      1557      1550      1553      1556      1558
      1550      1553      1556      1559      1551      1550      1553      1554
      1551      1550      1553      1555      1551      1550      1553      1556
      1552      1550      1553      1554      1552      1550      1553      1555
      1552      1550      1553      1556      1553      1556      1559      1560
      1553      1556      1559      1561      1553      1556      1559      1562
      1554      1553      1556      1557      1554      1553      1556      1558
      1554      1553      1556      1559      1555      1553      1556      1557
      1555      1553      1556      1558      1555      1553      1556      1559
      1556      1559      1562      1563      1556      1559      1562      1564
      1556      1559      1562      1565      1557      1556      1559      1560
      1557      1556      1559      1561      1557      1556      1559      1562
      1558      1556      1559      1560      1558      1556      1559      1561
      1558      1556      1559      1562      1559      1562      1565      1566
      1559      1562      1565      1567      1559      1562      1565      1568
      1560      1559      1562      1563      1560      1559      1562      1564
      1560      1559      1562      1565      1561      1559      1562      1563
      1561      1559      1562      1564      1561      1559      1562      1565
      1562      1565      1568      1569      1562      1565      1568      1570
      1562      1565      1568      1571      1563      1562      1565      1566
      1563      1562      1565      1567      1563      1562      1565      1568
      1564      1562      1565      1566      1564      1562      1565      1567
      1564      1562      1565      1568      1565      1568      1571      1572
      1565      1568      1571      1573      1565      1568      1571      1574
      1566      1565      1568      1569      1566      1565      1568      1570
      1566      1565      1568      1571      1567      1565      1568      1569
      1567      1565      1568      1570      1567      1565      1568      1571
      1568      1571      1574      1575      1568      1571      1574      1576
      1568      1571      1574      1577      1569      1568      1571      1572
      1569      1568      1571      1573      1569      1568      1571      1574
      1570      1568      1571      1572      1570      1568      1571      1573
      1570      1568      1571      1574      1571      1574      1577      1578
      1571      1574      1577      1579      1571      1574      1577      1580
      1572      1571      1574      1575      1572      1571      1574      1576
      1572      1571      1574      1577      1573      1571      1574      1575
      1573      1571      1574      1576      1573      1571      1574      1577
      1575      1574      1577      1578      1575      1574      1577      1579
      1575      1574      1577      1580      1576      1574      1577      1578
      1576      1574      1577      1579      1576      1574      1577      1580
      1581      1582      1597      1598      1581      1582      1597      1599
      1581      1582      1597      1603      1582      1581      1585      1586
      1582      1581      1585      1587      1582      1581      1585      1588
      1582      1581      1589      1590      1582      1581      1589      1591
      1582      1581      1589      1592      1582      1581      1593      1594
      1582      1581      1593      1595      1582      1581      1593      1596
      1582      1597      1603      1600      1583      1582      1581      1585
      1583      1582      1581      1589      1583      1582      1581      1593
      1583      1582      1597      1598      1583      1582      1597      1599
      1583      1582      1597      1603      1584      1582      1581      1585
      1584      1582      1581      1589      1584      1582      1581      1593
      1584      1582      1597      1598      1584      1582      1597      1599
      1584      1582      1597      1603      1585      1581      1582      1597
      1585      1581      1589      1590      1585      1581      1589      1591
      1585      1581      1589      1592      1585      1581      1593      1594
      1585      1581      1593      1595      1585      1581      1593      1596
      1586      1585      1581      1589      1586      1585      1581      1593
      1587      1585      1581      1589      1587      1585      1581      1593
      1588      1585      1581      1589      1588      1585      1581      1593
      1589      1581      1582      1597      1589      1581      1593      1594
      1589      1581      1593      1595      1589      1581      1593      1596
      1590      1589      1581      1593      1591      1589      1581      1593
      1592      1589      1581      1593      1593      1581      1582      1597
      1597      1603      1600      1601      1597      1603      1600      1602
      1597      1603      1600      1604      1598      1597      1603      1600
      1599      1597      1603      1600      1600      1604      1605      1606
      1600      1604      1605      1607      1600      1604      1605      1608
      1601      1600      1604      1605      1602      1600      1604      1605
      1603      1600      1604      1605      1604      1605      1608      1609
      1604      1605      1608      1610      1604      1605      1608      1616
      1605      1608      1610      1611      1605      1608      1616      1617
      1605      1608      1616      1618      1605      1608      1616      1619
      1606      1605      1608      1609      1606      1605      1608      1610
      1606      1605      1608      1616      1607      1605      1608      1609
      1607      1605      1608      1610      1607      1605      1608      1616
      1608      1610      1611      1612      1608      1610      1611      1613
      1608      1616      1619      1620      1609      1608      1610      1611
      1609      1608      1616      1617      1609      1608      1616      1618
      1609      1608      1616      1619      1610      1608      1616      1617
      1610      1608      1616      1618      1610      1608      1616      1619
      1610      1611      1613      1614      1610      1611      1613      1615
      1610      1611      1613      1625      1611      1610      1608      1616
      1611      1613      1625      1626      1611      1613      1625      1627
      1611      1613      1625      1628      1612      1611      1613      1614
      1612      1611      1613      1615      1612      1611      1613      1625
      1613      1625      1628      1629      1613      1625      1628      1630
      1613      1625      1628      1631      1614      1613      1625      1626
      1614      1613      1625      1627      1614      1613      1625      1628
      1615      1613      1625      1626      1615      1613      1625      1627
      1615      1613      1625      1628      1616      1619      1620      1621
      1616      1619      1620      1622      1617      1616      1619      1620
      1618      1616      1619      1620      1619      1620      1622      1623
      1619      1620      1622      1624      1619      1620      1622      1672
      1620      1622      1672      1673      1620      1622      1672      1674
      1620      1622      1672      1675      1621      1620      1622      1623
      1621      1620      1622      1624      1621      1620      1622      1672
      1622      1672      1675      1676      1622      1672      1675      1677
      1622      1672      1675      1678      1623      1622      1672      1673
      1623      1622      1672      1674      1623      1622      1672      1675
      1624      1622      1672      1673      1624      1622      1672      1674
      1624      1622      1672      1675      1625      1628      1631      1632
      1625      1628      1631      1633      1625      1628      1631      1634
      1626      1625      1628      1629      1626      1625      1628      1630
      1626      1625      1628      1631      1627      1625      1628      1629
      1627      1625      1628      1630      1627      1625      1628      1631
      1628      1631      1634      1635      1628      1631      1634      1636
      1628      1631      1634      1637      1629      1628      1631      1632
      1629      1628      1631      1633      1629      1628      1631      1634
      1630      1628      1631      1632      1630      1628      1631      1633
      1630      1628      1631      1634      1631      1634      1637      1638
      1631      1634      1637      1639      1631      1634      1637      1640
      1632      1631      1634      1635      1632      1631      1634      1636
      1632      1631      1634      1637      1633      1631      1634      1635
      1633      1631      1634      1636      1633      1631      1634      1637
      1634      1637      1640      1641      1634      1637      1640      1642
      1634      1637      1640      1643      1635      1634      1637      1638
      1635      1634      1637      1639      1635      1634      1637      1640
      1636      1634      1637      1638      1636      1634      1637      1639
      1636      1634      1637      1640      1637      1640      1643      1644
      1637      1640      1643      1645      1638      1637      1640      1641
      1638      1637      1640      1642      1638      1637      1640      1643
      1639      1637      1640      1641      1639      1637      1640      1642
      1639      1637      1640      1643      1640      1643      1645      1646
      1640      1643      1645      1647      1641      1640      1643      1644
      1641      1640      1643      1645      1642      1640      1643      1644
      1642      1640      1643      1645      1643      1645      1647      1648
      1643      1645      1647      1649      1643      1645      1647      1650
      1644      1643      1645      1646      1644      1643      1645      1647
      1645      1647      1650      1651      1645      1647      1650      1652
      1645      1647      1650      1653      1646      1645      1647      1648
      1646      1645      1647      1649      1646      1645      1647      1650
      1647      1650      1653      1654      1647      1650      1653      1655
      1647      1650      1653      1656      1648      1647      1650      1651
      1648      1647      1650      1652      1648      1647      1650      1653
      1649      1647      1650      1651      1649      1647      1650      1652
      1649      1647      1650      1653      1650      1653      1656      1657
      1650      1653      1656      1658      1650      1653      1656      1659
      1651      1650      1653      1654      1651      1650      1653      1655
      1651      1650      1653      1656      1652      1650      1653      1654
      1652      1650      1653      1655      1652      1650      1653      1656
      1653      1656      1659      1660      1653      1656      1659      1661
      1653      1656      1659      1662      1654      1653      1656      1657
      1654      1653      1656      1658      1654      1653      1656      1659
      1655      1653      1656      1657      1655      1653      1656      1658
      1655      1653      1656      1659      1656      1659      1662      1663
      1656      1659      1662      1664      1656      1659      1662      1665
      1657      1656      1659      1660      1657      1656      1659      1661
      1657      1656      1659      1662      1658      1656      1659      1660
      1658      1656      1659      1661      1658      1656      1659      1662
      1659      1662      1665      1666      1659      1662      1665      1667
      1659      1662      1665      1668      1660      1659      1662      1663
      1660      1659      1662      1664      1660      1659      1662      1665
      1661      1659      1662      1663      1661      1659      1662      1664
      1661      1659      1662      1665      1662      1665      1668      1669
      1662      1665      1668      1670      1662      1665      1668      1671
      1663      1662      1665      1666      1663      1662      1665      1667
      1663      1662      1665      1668      1664      1662      1665      1666
      1664      1662      1665      1667      1664      1662      1665      1668
      1666      1665      1668      1669      1666      1665      1668      1670
      1666      1665      1668      1671      1667      1665      1668      1669
      1667      1665      1668      1670      1667      1665      1668      1671
      1672      1675      1678      1679      1672      1675      1678      1680
      1672      1675      1678      1681      1673      1672      1675      1676
      1673      1672      1675      1677      1673      1672      1675      1678
      1674      1672      1675      1676      1674      1672      1675      1677
      1674      1672      1675      1678      1675      1678      1681      1682
      1675      1678      1681      1683      1675      1678      1681      1684
      1676      1675      1678      1679      1676      1675      1678      1680
      1676      1675      1678      1681      1677      1675      1678      1679
      1677      1675      1678      1680      1677      1675      1678      1681
      1678      1681      1684      1685      1678      1681      1684      1686
      1678      1681      1684      1687      1679      1678      1681      1682
      1679      1678      1681      1683      1679      1678      1681      1684
      1680      1678      1681      1682      1680      1678      1681      1683
      1680      1678      1681      1684      1681      1684      1687      1688
      1681      1684      1687      1689      1681      1684      1687      1690
      1682      1681      1684      1685      1682      1681      1684      1686
      1682      1681      1684      1687      1683      1681      1684      1685
      1683      1681      1684      1686      1683      1681      1684      1687
      1684      1687      1690      1691      1684      1687      1690      1692
      1684      1687      1690      1693      1685      1684      1687      1688
      1685      1684      1687      1689      1685      1684      1687      1690
      1686      1684      1687      1688      1686      1684      1687      1689
      1686      1684      1687      1690      1687      1690      1693      1694
      1687      1690      1693      1695      1687      1690      1693      1696
      1688      1687      1690      1691      1688      1687      1690      1692
      1688      1687      1690      1693      1689      1687      1690      1691
      1689      1687      1690      1692      1689      1687      1690      1693
      1690      1693      1696      1697      1690      1693      1696      1698
      1690      1693      1696      1699      1691      1690      1693      1694
      1691      1690      1693      1695      1691      1690      1693      1696
      1692      1690      1693      1694      1692      1690      1693      1695
      1692      1690      1693      1696      1693      1696      1699      1700
      1693      1696      1699      1701      1693      1696      1699      1702
      1694      1693      1696      1697      1694      1693      1696      1698
      1694      1693      1696      1699      1695      1693      1696      1697
      1695      1693      1696      1698      1695      1693      1696      1699
      1696      1699      1702      1703      1696      1699      1702      1704
      1696      1699      1702      1705      1697      1696      1699      1700
      1697      1696      1699      1701      1697      1696      1699      1702
      1698      1696      1699      1700      1698      1696      1699      1701
      1698      1696      1699      1702      1699      1702      1705      1706
      1699      1702      1705      1707      1699      1702      1705      1708
      1700      1699      1702      1703      1700      1699      1702      1704
      1700      1699      1702      1705      1701      1699      1702      1703
      1701      1699      1702      1704      1701      1699      1702      1705
      1702      1705      1708      1709      1702      1705      1708      1710
      1702      1705      1708      1711      1703      1702      1705      1706
      1703      1702      1705      1707      1703      1702      1705      1708
      1704      1702      1705      1706      1704      1702      1705      1707
      1704      1702      1705      1708      1705      1708      1711      1712
      1705      1708      1711      1713      1705      1708      1711      1714
      1706      1705      1708      1709      1706      1705      1708      1710
      1706      1705      1708      1711      1707      1705      1708      1709
      1707      1705      1708      1710      1707      1705      1708      1711
      1709      1708      1711      1712      1709      1708      1711      1713
      1709      1708      1711      1714      1710      1708      1711      1712
      1710      1708      1711      1713      1710      1708      1711      1714
      1715      1716      1731      1732      1715      1716      1731      1733
      1715      1716      1731      1737      1716      1715      1719      1720
      1716      1715      1719      1721      1716      1715      1719      1722
      1716      1715      1723      1724      1716      1715      1723      1725
      1716      1715      1723      1726      1716      1715      1727      1728
      1716      1715      1727      1729      1716      1715      1727      1730
      1716      1731      1737      1734      1717      1716      1715      1719
      1717      1716      1715      1723      1717      1716      1715      1727
      1717      1716      1731      1732      1717      1716      1731      1733
      1717      1716      1731      1737      1718      1716      1715      1719
      1718      1716      1715      1723      1718      1716      1715      1727
      1718      1716      1731      1732      1718      1716      1731      1733
      1718      1716      1731      1737      1719      1715      1716      1731
      1719      1715      1723      1724      1719      1715      1723      1725
      1719      1715      1723      1726      1719      1715      1727      1728
      1719      1715      1727      1729      1719      1715      1727      1730
      1720      1719      1715      1723      1720      1719      1715      1727
      1721      1719      1715      1723      1721      1719      1715      1727
      1722      1719      1715      1723      1722      1719      1715      1727
      1723      1715      1716      1731      1723      1715      1727      1728
      1723      1715      1727      1729      1723      1715      1727      1730
      1724      1723      1715      1727      1725      1723      1715      1727
      1726      1723      1715      1727      1727      1715      1716      1731
      1731      1737      1734      1735      1731      1737      1734      1736
      1731      1737      1734      1738      1732      1731      1737      1734
      1733      1731      1737      1734      1734      1738      1739      1740
      1734      1738      1739      1741      1734      1738      1739      1742
      1735      1734      1738      1739      1736      1734      1738      1739
      1737      1734      1738      1739      1738      1739      1742      1743
      1738      1739      1742      1744      1738      1739      1742      1750
      1739      1742      1744      1745      1739      1742      1750      1751
      1739      1742      1750      1752      1739      1742      1750      1753
      1740      1739      1742      1743      1740      1739      1742      1744
      1740      1739      1742      1750      1741      1739      1742      1743
      1741      1739      1742      1744      1741      1739      1742      1750
      1742      1744      1745      1746      1742      1744      1745      1747
      1742      1750      1753      1754      1743      1742      1744      1745
      1743      1742      1750      1751      1743      1742      1750      1752
      1743      1742      1750      1753      1744      1742      1750      1751
      1744      1742      1750      1752      1744      1742      1750      1753
      1744      1745      1747      1748      1744      1745      1747      1749
      1744      1745      1747      1759      1745      1744      1742      1750
      1745      1747      1759      1760      1745      1747      1759      1761
      1745      1747      1759      1762      1746      1745      1747      1748
      1746      1745      1747      1749      1746      1745      1747      1759
      1747      1759      1762      1763      1747      1759      1762      1764
      1747      1759      1762      1765      1748      1747      1759      1760
      1748      1747      1759      1761      1748      1747      1759      1762
      1749      1747      1759      1760      1749      1747      1759      1761
      1749      1747      1759      1762      1750      1753      1754      1755
      1750      1753      1754      1756      1751      1750      1753      1754
      1752      1750      1753      1754      1753      1754      1756      1757
      1753      1754      1756      1758      1753      1754      1756      1806
      1754      1756      1806      1807      1754      1756      1806      1808
      1754      1756      1806      1809      1755      1754      1756      1757
      1755      1754      1756      1758      1755      1754      1756      1806
      1756      1806      1809      1810      1756      1806      1809      1811
      1756      1806      1809      1812      1757      1756      1806      1807
      1757      1756      1806      1808      1757      1756      1806      1809
      1758      1756      1806      1807      1758      1756      1806      1808
      1758      1756      1806      1809      1759      1762      1765      1766
      1759      1762      1765      1767      1759      1762      1765      1768
      1760      1759      1762      1763      1760      1759      1762      1764
      1760      1759      1762      1765      1761      1759      1762      1763
      1761      1759      1762      1764      1761      1759      1762      1765
      1762      1765      1768      1769      1762      1765      1768      1770
      1762      1765      1768      1771      1763      1762      1765      1766
      1763      1762      1765      1767      1763      1762      1765      1768
      1764      1762      1765      1766      1764      1762      1765      1767
      1764      1762      1765      1768      1765      1768      1771      1772
      1765      1768      1771      1773      1765      1768      1771      1774
      1766      1765      1768      1769      1766      1765      1768      1770
      1766      1765      1768      1771      1767      1765      1768      1769
      1767      1765      1768      1770      1767      1765      1768      1771
      1768      1771      1774      1775      1768      1771      1774      1776
      1768      1771      1774      1777      1769      1768      1771      1772
      1769      1768      1771      1773      1769      1768      1771      1774
      1770      1768      1771      1772      1770      1768      1771      1773
      1770      1768      1771      1774      1771      1774      1777      1778
      1771      1774      1777      1779      1772      1771      1774      1775
      1772      1771      1774      1776      1772      1771      1774      1777
      1773      1771      1774      1775      1773      1771      1774      1776
      1773      1771      1774      1777      1774      1777      1779      1780
      1774      1777      1779      1781      1775      1774      1777      1778
      1775      1774      1777      1779      1776      1774      1777      1778
      1776      1774      1777      1779      1777      1779      1781      1782
      1777      1779      1781      1783      1777      1779      1781      1784
      1778      1777      1779      1780      1778      1777      1779      1781
      1779      1781      1784      1785      1779      1781      1784      1786
      1779      1781      1784      1787      1780      1779      1781      1782
      1780      1779      1781      1783      1780      1779      1781      1784
      1781      1784      1787      1788      1781      1784      1787      1789
      1781      1784      1787      1790      1782      1781      1784      1785
      1782      1781      1784      1786      1782      1781      1784      1787
      1783      1781      1784      1785      1783      1781      1784      1786
      1783      1781      1784      1787      1784      1787      1790      1791
      1784      1787      1790      1792      1784      1787      1790      1793
      1785      1784      1787      1788      1785      1784      1787      1789
      1785      1784      1787      1790      1786      1784      1787      1788
      1786      1784      1787      1789      1786      1784      1787      1790
      1787      1790      1793      1794      1787      1790      1793      1795
      1787      1790      1793      1796      1788      1787      1790      1791
      1788      1787      1790      1792      1788      1787      1790      1793
      1789      1787      1790      1791      1789      1787      1790      1792
      1789      1787      1790      1793      1790      1793      1796      1797
      1790      1793      1796      1798      1790      1793      1796      1799
      1791      1790      1793      1794      1791      1790      1793      1795
      1791      1790      1793      1796      1792      1790      1793      1794
      1792      1790      1793      1795      1792      1790      1793      1796
      1793      1796      1799      1800      1793      1796      1799      1801
      1793      1796      1799      1802      1794      1793      1796      1797
      1794      1793      1796      1798      1794      1793      1796      1799
      1795      1793      1796      1797      1795      1793      1796      1798
      1795      1793      1796      1799      1796      1799      1802      1803
      1796      1799      1802      1804      1796      1799      1802      1805
      1797      1796      1799      1800      1797      1796      1799      1801
      1797      1796      1799      1802      1798      1796      1799      1800
      1798      1796      1799      1801      1798      1796      1799      1802
      1800      1799      1802      1803      1800      1799      1802      1804
      1800      1799      1802      1805      1801      1799      1802      1803
      1801      1799      1802      1804      1801      1799      1802      1805
      1806      1809      1812      1813      1806      1809      1812      1814
      1806      1809      1812      1815      1807      1806      1809      1810
      1807      1806      1809      1811      1807      1806      1809      1812
      1808      1806      1809      1810      1808      1806      1809      1811
      1808      1806      1809      1812      1809      1812      1815      1816
      1809      1812      1815      1817      1809      1812      1815      1818
      1810      1809      1812      1813      1810      1809      1812      1814
      1810      1809      1812      1815      1811      1809      1812      1813
      1811      1809      1812      1814      1811      1809      1812      1815
      1812      1815      1818      1819      1812      1815      1818      1820
      1812      1815      1818      1821      1813      1812      1815      1816
      1813      1812      1815      1817      1813      1812      1815      1818
      1814      1812      1815      1816      1814      1812      1815      1817
      1814      1812      1815      1818      1815      1818      1821      1822
      1815      1818      1821      1823      1815      1818      1821      1824
      1816      1815      1818      1819      1816      1815      1818      1820
      1816      1815      1818      1821      1817      1815      1818      1819
      1817      1815      1818      1820      1817      1815      1818      1821
      1818      1821      1824      1825      1818      1821      1824      1826
      1818      1821      1824      1827      1819      1818      1821      1822
      1819      1818      1821      1823      1819      1818      1821      1824
      1820      1818      1821      1822      1820      1818      1821      1823
      1820      1818      1821      1824      1821      1824      1827      1828
      1821      1824      1827      1829      1821      1824      1827      1830
      1822      1821      1824      1825      1822      1821      1824      1826
      1822      1821      1824      1827      1823      1821      1824      1825
      1823      1821      1824      1826      1823      1821      1824      1827
      1824      1827      1830      1831      1824      1827      1830      1832
      1824      1827      1830      1833      1825      1824      1827      1828
      1825      1824      1827      1829      1825      1824      1827      1830
      1826      1824      1827      1828      1826      1824      1827      1829
      1826      1824      1827      1830      1827      1830      1833      1834
      1827      1830      1833      1835      1827      1830      1833      1836
      1828      1827      1830      1831      1828      1827      1830      1832
      1828      1827      1830      1833      1829      1827      1830      1831
      1829      1827      1830      1832      1829      1827      1830      1833
      1830      1833      1836      1837      1830      1833      1836      1838
      1830      1833      1836      1839      1831      1830      1833      1834
      1831      1830      1833      1835      1831      1830      1833      1836
      1832      1830      1833      1834      1832      1830      1833      1835
      1832      1830      1833      1836      1833      1836      1839      1840
      1833      1836      1839      1841      1833      1836      1839      1842
      1834      1833      1836      1837      1834      1833      1836      1838
      1834      1833      1836      1839      1835      1833      1836      1837
      1835      1833      1836      1838      1835      1833      1836      1839
      1836      1839      1842      1843      1836      1839      1842      1844
      1836      1839      1842      1845      1837      1836      1839      1840
      1837      1836      1839      1841      1837      1836      1839      1842
      1838      1836      1839      1840      1838      1836      1839      1841
      1838      1836      1839      1842      1839      1842      1845      1846
      1839      1842      1845      1847      1839      1842      1845      1848
      1840      1839      1842      1843      1840      1839      1842      1844
      1840      1839      1842      1845      1841      1839      1842      1843
      1841      1839      1842      1844      1841      1839      1842      1845
      1843      1842      1845      1846      1843      1842      1845      1847
      1843      1842      1845      1848      1844      1842      1845      1846
      1844      1842      1845      1847      1844      1842      1845      1848
      1849      1850      1865      1866      1849      1850      1865      1867
      1849      1850      1865      1871      1850      1849      1853      1854
      1850      1849      1853      1855      1850      1849      1853      1856
      1850      1849      1857      1858      1850      1849      1857      1859
      1850      1849      1857      1860      1850      1849      1861      1862
      1850      1849      1861      1863      1850      1849      1861      1864
      1850      1865      1871      1868      1851      1850      1849      1853
      1851      1850      1849      1857      1851      1850      1849      1861
      1851      1850      1865      1866      1851      1850      1865      1867
      1851      1850      1865      1871      1852      1850      1849      1853
      1852      1850      1849      1857      1852      1850      1849      1861
      1852      1850      1865      1866      1852      1850      1865      1867
      1852      1850      1865      1871      1853      1849      1850      1865
      1853      1849      1857      1858      1853      1849      1857      1859
      1853      1849      1857      1860      1853      1849      1861      1862
      1853      1849      1861      1863      1853      1849      1861      1864
      1854      1853      1849      1857      1854      1853      1849      1861
      1855      1853      1849      1857      1855      1853      1849      1861
      1856      1853      1849      1857      1856      1853      1849      1861
      1857      1849      1850      1865      1857      1849      1861      1862
      1857      1849      1861      1863      1857      1849      1861      1864
      1858      1857      1849      1861      1859      1857      1849      1861
      1860      1857      1849      1861      1861      1849      1850      1865
      1865      1871      1868      1869      1865      1871      1868      1870
      1865      1871      1868      1872      1866      1865      1871      1868
      1867      1865      1871      1868      1868      1872      1873      1874
      1868      1872      1873      1875      1868      1872      1873      1876
      1869      1868      1872      1873      1870      1868      1872      1873
      1871      1868      1872      1873      1872      1873      1876      1877
      1872      1873      1876      1878      1872      1873      1876      1884
      1873      1876      1878      1879      1873      1876      1884      1885
      1873      1876      1884      1886      1873      1876      1884      1887
      1874      1873      1876      1877      1874      1873      1876      1878
      1874      1873      1876      1884      1875      1873      1876      1877
      1875      1873      1876      1878      1875      1873      1876      1884
      1876      1878      1879      1880      1876      1878      1879      1881
      1876      1884      1887      1888      1877      1876      1878      1879
      1877      1876      1884      1885      1877      1876      1884      1886
      1877      1876      1884      1887      1878      1876      1884      1885
      1878      1876      1884      1886      1878      1876      1884      1887
      1878      1879      1881      1882      1878      1879      1881      1883
      1878      1879      1881      1893      1879      1878      1876      1884
      1879      1881      1893      1894      1879      1881      1893      1895
      1879      1881      1893      1896      1880      1879      1881      1882
      1880      1879      1881      1883      1880      1879      1881      1893
      1881      1893      1896      1897      1881      1893      1896      1898
      1881      1893      1896      1899      1882      1881      1893      1894
      1882      1881      1893      1895      1882      1881      1893      1896
      1883      1881      1893      1894      1883      1881      1893      1895
      1883      1881      1893      1896      1884      1887      1888      1889
      1884      1887      1888      1890      1885      1884      1887      1888
      1886      1884      1887      1888      1887      1888      1890      1891
      1887      1888      1890      1892      1887      1888      1890      1940
      1888      1890      1940      1941      1888      1890      1940      1942
      1888      1890      1940      1943      1889      1888      1890      1891
      1889      1888      1890      1892      1889      1888      1890      1940
      1890      1940      1943      1944      1890      1940      1943      1945
      1890      1940      1943      1946      1891      1890      1940      1941
      1891      1890      1940      1942      1891      1890      1940      1943
      1892      1890      1940      1941      1892      1890      1940      1942
      1892      1890      1940      1943      1893      1896      1899      1900
      1893      1896      1899      1901      1893      1896      1899      1902
      1894      1893      1896      1897      1894      1893      1896      1898
      1894      1893      1896      1899      1895      1893      1896      1897
      1895      1893      1896      1898      1895      1893      1896      1899
      1896      1899      1902      1903      1896      1899      1902      1904
      1896      1899      1902      1905      1897      1896      1899      1900
      1897      1896      1899      1901      1897      1896      1899      1902
      1898      1896      1899      1900      1898      1896      1899      1901
      1898      1896      1899      1902      1899      1902      1905      1906
      1899      1902      1905      1907      1899      1902      1905      1908
      1900      1899      1902      1903      1900      1899      1902      1904
      1900      1899      1902      1905      1901      1899      1902      1903
      1901      1899      1902      1904      1901      1899      1902      1905
      1902      1905      1908      1909      1902      1905      1908      1910
      1902      1905      1908      1911      1903      1902      1905      1906
      1903      1902      1905      1907      1903      1902      1905      1908
      1904      1902      1905      1906      1904      1902      1905      1907
      1904      1902      1905      1908      1905      1908      1911      1912
      1905      1908      1911      1913      1906      1905      1908      1909
      1906      1905      1908      1910      1906      1905      1908      1911
      1907      1905      1908      1909      1907      1905      1908      1910
      1907      1905      1908      1911      1908      1911      1913      1914
      1908      1911      1913      1915      1909      1908      1911      1912
      1909      1908      1911      1913      1910      1908      1911      1912
      1910      1908      1911      1913      1911      1913      1915      1916
      1911      1913      1915      1917      1911      1913      1915      1918
      1912      1911      1913      1914      1912      1911      1913      1915
      1913      1915      1918      1919      1913      1915      1918      1920
      1913      1915      1918      1921      1914      1913      1915      1916
      1914      1913      1915      1917      1914      1913      1915      1918
      1915      1918      1921      1922      1915      1918      1921      1923
      1915      1918      1921      1924      1916      1915      1918      1919
      1916      1915      1918      1920      1916      1915      1918      1921
      1917      1915      1918      1919      1917      1915      1918      1920
      1917      1915      1918      1921      1918      1921      1924      1925
      1918      1921      1924      1926      1918      1921      1924      1927
      1919      1918      1921      1922      1919      1918      1921      1923
      1919      1918      1921      1924      1920      1918      1921      1922
      1920      1918      1921      1923      1920      1918      1921      1924
      1921      1924      1927      1928      1921      1924      1927      1929
      1921      1924      1927      1930      1922      1921      1924      1925
      1922      1921      1924      1926      1922      1921      1924      1927
      1923      1921      1924      1925      1923      1921      1924      1926
      1923      1921      1924      1927      1924      1927      1930      1931
      1924      1927      1930      1932      1924      1927      1930      1933
      1925      1924      1927      1928      1925      1924      1927      1929
      1925      1924      1927      1930      1926      1924      1927      1928
      1926      1924      1927      1929      1926      1924      1927      1930
      1927      1930      1933      1934      1927      1930      1933      1935
      1927      1930      1933      1936      1928      1927      1930      1931
      1928      1927      1930      1932      1928      1927      1930      1933
      1929      1927      1930      1931      1929      1927      1930      1932
      1929      1927      1930      1933      1930      1933      1936      1937
      1930      1933      1936      1938      1930      1933      1936      1939
      1931      1930      1933      1934      1931      1930      1933      1935
      1931      1930      1933      1936      1932      1930      1933      1934
      1932      1930      1933      1935      1932      1930      1933      1936
      1934      1933      1936      1937      1934      1933      1936      1938
      1934      1933      1936      1939      1935      1933      1936      1937
      1935      1933      1936      1938      1935      1933      1936      1939
      1940      1943      1946      1947      1940      1943      1946      1948
      1940      1943      1946      1949      1941      1940      1943      1944
      1941      1940      1943      1945      1941      1940      1943      1946
      1942      1940      1943      1944      1942      1940      1943      1945
      1942      1940      1943      1946      1943      1946      1949      1950
      1943      1946      1949      1951      1943      1946      1949      1952
      1944      1943      1946      1947      1944      1943      1946      1948
      1944      1943      1946      1949      1945      1943      1946      1947
      1945      1943      1946      1948      1945      1943      1946      1949
      1946      1949      1952      1953      1946      1949      1952      1954
      1946      1949      1952      1955      1947      1946      1949      1950
      1947      1946      1949      1951      1947      1946      1949      1952
      1948      1946      1949      1950      1948      1946      1949      1951
      1948      1946      1949      1952      1949      1952      1955      1956
      1949      1952      1955      1957      1949      1952      1955      1958
      1950      1949      1952      1953      1950      1949      1952      1954
      1950      1949      1952      1955      1951      1949      1952      1953
      1951      1949      1952      1954      1951      1949      1952      1955
      1952      1955      1958      1959      1952      1955      1958      1960
      1952      1955      1958      1961      1953      1952      1955      1956
      1953      1952      1955      1957      1953      1952      1955      1958
      1954      1952      1955      1956      1954      1952      1955      1957
      1954      1952      1955      1958      1955      1958      1961      1962
      1955      1958      1961      1963      1955      1958      1961      1964
      1956      1955      1958      1959      1956      1955      1958      1960
      1956      1955      1958      1961      1957      1955      1958      1959
      1957      1955      1958      1960      1957      1955      1958      1961
      1958      1961      1964      1965      1958      1961      1964      1966
      1958      1961      1964      1967      1959      1958      1961      1962
      1959      1958      1961      1963      1959      1958      1961      1964
      1960      1958      1961      1962      1960      1958      1961      1963
      1960      1958      1961      1964      1961      1964      1967      1968
      1961      1964      1967      1969      1961      1964      1967      1970
      1962      1961      1964      1965      1962      1961      1964      1966
      1962      1961      1964      1967      1963      1961      1964      1965
      1963      1961      1964      1966      1963      1961      1964      1967
      1964      1967      1970      1971      1964      1967      1970      1972
      1964      1967      1970      1973      1965      1964      1967      1968
      1965      1964      1967      1969      1965      1964      1967      1970
      1966      1964      1967      1968      1966      1964      1967      1969
      1966      1964      1967      1970      1967      1970      1973      1974
      1967      1970      1973      1975      1967      1970      1973      1976
      1968      1967      1970      1971      1968      1967      1970      1972
      1968      1967      1970      1973      1969      1967      1970      1971
      1969      1967      1970      1972      1969      1967      1970      1973
      1970      1973      1976      1977      1970      1973      1976      1978
      1970      1973      1976      1979      1971      1970      1973      1974
      1971      1970      1973      1975      1971      1970      1973      1976
      1972      1970      1973      1974      1972      1970      1973      1975
      1972      1970      1973      1976      1973      1976      1979      1980
      1973      1976      1979      1981      1973      1976      1979      1982
      1974      1973      1976      1977      1974      1973      1976      1978
      1974      1973      1976      1979      1975      1973      1976      1977
      1975      1973      1976      1978      1975      1973      1976      1979
      1977      1976      1979      1980      1977      1976      1979      1981
      1977      1976      1979      1982      1978      1976      1979      1980
      1978      1976      1979      1981      1978      1976      1979      1982
      1983      1984      1999      2000      1983      1984      1999      2001
      1983      1984      1999      2005      1984      1983      1987      1988
      1984      1983      1987      1989      1984      1983      1987      1990
      1984      1983      1991      1992      1984      1983      1991      1993
      1984      1983      1991      1994      1984      1983      1995      1996
      1984      1983      1995      1997      1984      1983      1995      1998
      1984      1999      2005      2002      1985      1984      1983      1987
      1985      1984      1983      1991      1985      1984      1983      1995
      1985      1984      1999      2000      1985      1984      1999      2001
      1985      1984      1999      2005      1986      1984      1983      1987
      1986      1984      1983      1991      1986      1984      1983      1995
      1986      1984      1999      2000      1986      1984      1999      2001
      1986      1984      1999      2005      1987      1983      1984      1999
      1987      1983      1991      1992      1987      1983      1991      1993
      1987      1983      1991      1994      1987      1983      1995      1996
      1987      1983      1995      1997      1987      1983      1995      1998
      1988      1987      1983      1991      1988      1987      1983      1995
      1989      1987      1983      1991      1989      1987      1983      1995
      1990      1987      1983      1991      1990      1987      1983      1995
      1991      1983      1984      1999      1991      1983      1995      1996
      1991      1983      1995      1997      1991      1983      1995      1998
      1992      1991      1983      1995      1993      1991      1983      1995
      1994      1991      1983      1995      1995      1983      1984      1999
      1999      2005      2002      2003      1999      2005      2002      2004
      1999      2005      2002      2006      2000      1999      2005      2002
      2001      1999      2005      2002      2002      2006      2007      2008
      2002      2006      2007      2009      2002      2006      2007      2010
      2003      2002      2006      2007      2004      2002      2006      2007
      2005      2002      2006      2007      2006      2007      2010      2011
      2006      2007      2010      2012      2006      2007      2010      2018
      2007      2010      2012      2013      2007      2010      2018      2019
      2007      2010      2018      2020      2007      2010      2018      2021
      2008      2007      2010      2011      2008      2007      2010      2012
      2008      2007      2010      2018      2009      2007      2010      2011
      2009      2007      2010      2012      2009      2007      2010      2018
      2010      2012      2013      2014      2010      2012      2013      2015
      2010      2018      2021      2022      2011      2010      2012      2013
      2011      2010      2018      2019      2011      2010      2018      2020
      2011      2010      2018      2021      2012      2010      2018      2019
      2012      2010      2018      2020      2012      2010      2018      2021
      2012      2013      2015      2016      2012      2013      2015      2017
      2012      2013      2015      2027      2013      2012      2010      2018
      2013      2015      2027      2028      2013      2015      2027      2029
      2013      2015      2027      2030      2014      2013      2015      2016
      2014      2013      2015      2017      2014      2013      2015      2027
      2015      2027      2030      2031      2015      2027      2030      2032
      2015      2027      2030      2033      2016      2015      2027      2028
      2016      2015      2027      2029      2016      2015      2027      2030
      2017      2015      2027      2028      2017      2015      2027      2029
      2017      2015      2027      2030      2018      2021      2022      2023
      2018      2021      2022      2024      2019      2018      2021      2022
      2020      2018      2021      2022      2021      2022      2024      2025
      2021      2022      2024      2026      2021      2022      2024      2074
      2022      2024      2074      2075      2022      2024      2074      2076
      2022      2024      2074      2077      2023      2022      2024      2025
      2023      2022      2024      2026      2023      2022      2024      2074
      2024      2074      2077      2078      2024      2074      2077      2079
      2024      2074      2077      2080      2025      2024      2074      2075
      2025      2024      2074      2076      2025      2024      2074      2077
      2026      2024      2074      2075      2026      2024      2074      2076
      2026      2024      2074      2077      2027      2030      2033      2034
      2027      2030      2033      2035      2027      2030      2033      2036
      2028      2027      2030      2031      2028      2027      2030      2032
      2028      2027      2030      2033      2029      2027      2030      2031
      2029      2027      2030      2032      2029      2027      2030      2033
      2030      2033      2036      2037      2030      2033      2036      2038
      2030      2033      2036      2039      2031      2030      2033      2034
      2031      2030      2033      2035      2031      2030      2033      2036
      2032      2030      2033      2034      2032      2030      2033      2035
      2032      2030      2033      2036      2033      2036      2039      2040
      2033      2036      2039      2041      2033      2036      2039      2042
      2034      2033      2036      2037      2034      2033      2036      2038
      2034      2033      2036      2039      2035      2033      2036      2037
      2035      2033      2036      2038      2035      2033      2036      2039
      2036      2039      2042      2043      2036      2039      2042      2044
      2036      2039      2042      2045      2037      2036      2039      2040
      2037      2036      2039      2041      2037      2036      2039      2042
      2038      2036      2039      2040      2038      2036      2039      2041
      2038      2036      2039      2042      2039      2042      2045      2046
      2039      2042      2045      2047      2040      2039      2042      2043
      2040      2039      2042      2044      2040      2039      2042      2045
      2041      2039      2042      2043      2041      2039      2042      2044
      2041      2039      2042      2045      2042      2045      2047      2048
      2042      2045      2047      2049      2043      2042      2045      2046
      2043      2042      2045      2047      2044      2042      2045      2046
      2044      2042      2045      2047      2045      2047      2049      2050
      2045      2047      2049      2051      2045      2047      2049      2052
      2046      2045      2047      2048      2046      2045      2047      2049
      2047      2049      2052      2053      2047      2049      2052      2054
      2047      2049      2052      2055      2048      2047      2049      2050
      2048      2047      2049      2051      2048      2047      2049      2052
      2049      2052      2055      2056      2049      2052      2055      2057
      2049      2052      2055      2058      2050      2049      2052      2053
      2050      2049      2052      2054      2050      2049      2052      2055
      2051      2049      2052      2053      2051      2049      2052      2054
      2051      2049      2052      2055      2052      2055      2058      2059
      2052      2055      2058      2060      2052      2055      2058      2061
      2053      2052      2055      2056      2053      2052      2055      2057
      2053      2052      2055      2058      2054      2052      2055      2056
      2054      2052      2055      2057      2054      2052      2055      2058
      2055      2058      2061      2062      2055      2058      2061      2063
      2055      2058      2061      2064      2056      2055      2058      2059
      2056      2055      2058      2060      2056      2055      2058      2061
      2057      2055      2058      2059      2057      2055      2058      2060
      2057      2055      2058      2061      2058      2061      2064      2065
      2058      2061      2064      2066      2058      2061      2064      2067
      2059      2058      2061      2062      2059      2058      2061      2063
      2059      2058      2061      2064      2060      2058      2061      2062
      2060      2058      2061      2063      2060      2058      2061      2064
      2061      2064      2067      2068      2061      2064      2067      2069
      2061      2064      2067      2070      2062      2061      2064      2065
      2062      2061      2064      2066      2062      2061      2064      2067
      2063      2061      2064      2065      2063      2061      2064      2066
      2063      2061      2064      2067      2064      2067      2070      2071
      2064      2067      2070      2072      2064      2067      2070      2073
      2065      2064      2067      2068      2065      2064      2067      2069
      2065      2064      2067      2070      2066      2064      2067      2068
      2066      2064      2067      2069      2066      2064      2067      2070
      2068      2067      2070      2071      2068      2067      2070      2072
      2068      2067      2070      2073      2069      2067      2070      2071
      2069      2067      2070      2072      2069      2067      2070      2073
      2074      2077      2080      2081      2074      2077      2080      2082
      2074      2077      2080      2083      2075      2074      2077      2078
      2075      2074      2077      2079      2075      2074      2077      2080
      2076      2074      2077      2078      2076      2074      2077      2079
      2076      2074      2077      2080      2077      2080      2083      2084
      2077      2080      2083      2085      2077      2080      2083      2086
      2078      2077      2080      2081      2078      2077      2080      2082
      2078      2077      2080      2083      2079      2077      2080      2081
      2079      2077      2080      2082      2079      2077      2080      2083
      2080      2083      2086      2087      2080      2083      2086      2088
      2080      2083      2086      2089      2081      2080      2083      2084
      2081      2080      2083      2085      2081      2080      2083      2086
      2082      2080      2083      2084      2082      2080      2083      2085
      2082      2080      2083      2086      2083      2086      2089      2090
      2083      2086      2089      2091      2083      2086      2089      2092
      2084      2083      2086      2087      2084      2083      2086      2088
      2084      2083      2086      2089      2085      2083      2086      2087
      2085      2083      2086      2088      2085      2083      2086      2089
      2086      2089      2092      2093      2086      2089      2092      2094
      2086      2089      2092      2095      2087      2086      2089      2090
      2087      2086      2089      2091      2087      2086      2089      2092
      2088      2086      2089      2090      2088      2086      2089      2091
      2088      2086      2089      2092      2089      2092      2095      2096
      2089      2092      2095      2097      2089      2092      2095      2098
      2090      2089      2092      2093      2090      2089      2092      2094
      2090      2089      2092      2095      2091      2089      2092      2093
      2091      2089      2092      2094      2091      2089      2092      2095
      2092      2095      2098      2099      2092      2095      2098      2100
      2092      2095      2098      2101      2093      2092      2095      2096
      2093      2092      2095      2097      2093      2092      2095      2098
      2094      2092      2095      2096      2094      2092      2095      2097
      2094      2092      2095      2098      2095      2098      2101      2102
      2095      2098      2101      2103      2095      2098      2101      2104
      2096      2095      2098      2099      2096      2095      2098      2100
      2096      2095      2098      2101      2097      2095      2098      2099
      2097      2095      2098      2100      2097      2095      2098      2101
      2098      2101      2104      2105      2098      2101      2104      2106
      2098      2101      2104      2107      2099      2098      2101      2102
      2099      2098      2101      2103      2099      2098      2101      2104
      2100      2098      2101      2102      2100      2098      2101      2103
      2100      2098      2101      2104      2101      2104      2107      2108
      2101      2104      2107      2109      2101      2104      2107      2110
      2102      2101      2104      2105      2102      2101      2104      2106
      2102      2101      2104      2107      2103      2101      2104      2105
      2103      2101      2104      2106      2103      2101      2104      2107
      2104      2107      2110      2111      2104      2107      2110      2112
      2104      2107      2110      2113      2105      2104      2107      2108
      2105      2104      2107      2109      2105      2104      2107      2110
      2106      2104      2107      2108      2106      2104      2107      2109
      2106      2104      2107      2110      2107      2110      2113      2114
      2107      2110      2113      2115      2107      2110      2113      2116
      2108      2107      2110      2111      2108      2107      2110      2112
      2108      2107      2110      2113      2109      2107      2110      2111
      2109      2107      2110      2112      2109      2107      2110      2113
      2111      2110      2113      2114      2111      2110      2113      2115
      2111      2110      2113      2116      2112      2110      2113      2114
      2112      2110      2113      2115      2112      2110      2113      2116
      2117      2118      2133      2134      2117      2118      2133      2135
      2117      2118      2133      2139      2118      2117      2121      2122
      2118      2117      2121      2123      2118      2117      2121      2124
      2118      2117      2125      2126      2118      2117      2125      2127
      2118      2117      2125      2128      2118      2117      2129      2130
      2118      2117      2129      2131      2118      2117      2129      2132
      2118      2133      2139      2136      2119      2118      2117      2121
      2119      2118      2117      2125      2119      2118      2117      2129
      2119      2118      2133      2134      2119      2118      2133      2135
      2119      2118      2133      2139      2120      2118      2117      2121
      2120      2118      2117      2125      2120      2118      2117      2129
      2120      2118      2133      2134      2120      2118      2133      2135
      2120      2118      2133      2139      2121      2117      2118      2133
      2121      2117      2125      2126      2121      2117      2125      2127
      2121      2117      2125      2128      2121      2117      2129      2130
      2121      2117      2129      2131      2121      2117      2129      2132
      2122      2121      2117      2125      2122      2121      2117      2129
      2123      2121      2117      2125      2123      2121      2117      2129
      2124      2121      2117      2125      2124      2121      2117      2129
      2125      2117      2118      2133      2125      2117      2129      2130
      2125      2117      2129      2131      2125      2117      2129      2132
      2126      2125      2117      2129      2127      2125      2117      2129
      2128      2125      2117      2129      2129      2117      2118      2133
      2133      2139      2136      2137      2133      2139      2136      2138
      2133      2139      2136      2140      2134      2133      2139      2136
      2135      2133      2139      2136      2136      2140      2141      2142
      2136      2140      2141      2143      2136      2140      2141      2144
      2137      2136      2140      2141      2138      2136      2140      2141
      2139      2136      2140      2141      2140      2141      2144      2145
      2140      2141      2144      2146      2140      2141      2144      2152
      2141      2144      2146      2147      2141      2144      2152      2153
      2141      2144      2152      2154      2141      2144      2152      2155
      2142      2141      2144      2145      2142      2141      2144      2146
      2142      2141      2144      2152      2143      2141      2144      2145
      2143      2141      2144      2146      2143      2141      2144      2152
      2144      2146      2147      2148      2144      2146      2147      2149
      2144      2152      2155      2156      2145      2144      2146      2147
      2145      2144      2152      2153      2145      2144      2152      2154
      2145      2144      2152      2155      2146      2144      2152      2153
      2146      2144      2152      2154      2146      2144      2152      2155
      2146      2147      2149      2150      2146      2147      2149      2151
      2146      2147      2149      2161      2147      2146      2144      2152
      2147      2149      2161      2162      2147      2149      2161      2163
      2147      2149      2161      2164      2148      2147      2149      2150
      2148      2147      2149      2151      2148      2147      2149      2161
      2149      2161      2164      2165      2149      2161      2164      2166
      2149      2161      2164      2167      2150      2149      2161      2162
      2150      2149      2161      2163      2150      2149      2161      2164
      2151      2149      2161      2162      2151      2149      2161      2163
      2151      2149      2161      2164      2152      2155      2156      2157
      2152      2155      2156      2158      2153      2152      2155      2156
      2154      2152      2155      2156      2155      2156      2158      2159
      2155      2156      2158      2160      2155      2156      2158      2208
      2156      2158      2208      2209      2156      2158      2208      2210
      2156      2158      2208      2211      2157      2156      2158      2159
      2157      2156      2158      2160      2157      2156      2158      2208
      2158      2208      2211      2212      2158      2208      2211      2213
      2158      2208      2211      2214      2159      2158      2208      2209
      2159      2158      2208      2210      2159      2158      2208      2211
      2160      2158      2208      2209      2160      2158      2208      2210
      2160      2158      2208      2211      2161      2164      2167      2168
      2161      2164      2167      2169      2161      2164      2167      2170
      2162      2161      2164      2165      2162      2161      2164      2166
      2162      2161      2164      2167      2163      2161      2164      2165
      2163      2161      2164      2166      2163      2161      2164      2167
      2164      2167      2170      2171      2164      2167      2170      2172
      2164      2167      2170      2173      2165      2164      2167      2168
      2165      2164      2167      2169      2165      2164      2167      2170
      2166      2164      2167      2168      2166      2164      2167      2169
      2166      2164      2167      2170      2167      2170      2173      2174
      2167      2170      2173      2175      2167      2170      2173      2176
      2168      2167      2170      2171      2168      2167      2170      2172
      2168      2167      2170      2173      2169      2167      2170      2171
      2169      2167      2170      2172      2169      2167      2170      2173
      2170      2173      2176      2177      2170      2173      2176      2178
      2170      2173      2176      2179      2171      2170      2173      2174
      2171      2170      2173      2175      2171      2170      2173      2176
      2172      2170      2173      2174      2172      2170      2173      2175
      2172      2170      2173      2176      2173      2176      2179      2180
      2173      2176      2179      2181      2174      2173      2176      2177
      2174      2173      2176      2178      2174      2173      2176      2179
      2175      2173      2176      2177      2175      2173      2176      2178
      2175      2173      2176      2179      2176      2179      2181      2182
      2176      2179      2181      2183      2177      2176      2179      2180
      2177      2176      2179      2181      2178      2176      2179      2180
      2178      2176      2179      2181      2179      2181      2183      2184
      2179      2181      2183      2185      2179      2181      2183      2186
      2180      2179      2181      2182      2180      2179      2181      2183
      2181      2183      2186      2187      2181      2183      2186      2188
      2181      2183      2186      2189      2182      2181      2183      2184
      2182      2181      2183      2185      2182      2181      2183      2186
      2183      2186      2189      2190      2183      2186      2189      2191
      2183      2186      2189      2192      2184      2183      2186      2187
      2184      2183      2186      2188      2184      2183      2186      2189
      2185      2183      2186      2187      2185      2183      2186      2188
      2185      2183      2186      2189      2186      2189      2192      2193
      2186      2189      2192      2194      2186      2189      2192      2195
      2187      2186      2189      2190      2187      2186      2189      2191
      2187      2186      2189      2192      2188      2186      2189      2190
      2188      2186      2189      2191      2188      2186      2189      2192
      2189      2192      2195      2196      2189      2192      2195      2197
      2189      2192      2195      2198      2190      2189      2192      2193
      2190      2189      2192      2194      2190      2189      2192      2195
      2191      2189      2192      2193      2191      2189      2192      2194
      2191      2189      2192      2195      2192      2195      2198      2199
      2192      2195      2198      2200      2192      2195      2198      2201
      2193      2192      2195      2196      2193      2192      2195      2197
      2193      2192      2195      2198      2194      2192      2195      2196
      2194      2192      2195      2197      2194      2192      2195      2198
      2195      2198      2201      2202      2195      2198      2201      2203
      2195      2198      2201      2204      2196      2195      2198      2199
      2196      2195      2198      2200      2196      2195      2198      2201
      2197      2195      2198      2199      2197      2195      2198      2200
      2197      2195      2198      2201      2198      2201      2204      2205
      2198      2201      2204      2206      2198      2201      2204      2207
      2199      2198      2201      2202      2199      2198      2201      2203
      2199      2198      2201      2204      2200      2198      2201      2202
      2200      2198      2201      2203      2200      2198      2201      2204
      2202      2201      2204      2205      2202      2201      2204      2206
      2202      2201      2204      2207      2203      2201      2204      2205
      2203      2201      2204      2206      2203      2201      2204      2207
      2208      2211      2214      2215      2208      2211      2214      2216
      2208      2211      2214      2217      2209      2208      2211      2212
      2209      2208      2211      2213      2209      2208      2211      2214
      2210      2208      2211      2212      2210      2208      2211      2213
      2210      2208      2211      2214      2211      2214      2217      2218
      2211      2214      2217      2219      2211      2214      2217      2220
      2212      2211      2214      2215      2212      2211      2214      2216
      2212      2211      2214      2217      2213      2211      2214      2215
      2213      2211      2214      2216      2213      2211      2214      2217
      2214      2217      2220      2221      2214      2217      2220      2222
      2214      2217      2220      2223      2215      2214      2217      2218
      2215      2214      2217      2219      2215      2214      2217      2220
      2216      2214      2217      2218      2216      2214      2217      2219
      2216      2214      2217      2220      2217      2220      2223      2224
      2217      2220      2223      2225      2217      2220      2223      2226
      2218      2217      2220      2221      2218      2217      2220      2222
      2218      2217      2220      2223      2219      2217      2220      2221
      2219      2217      2220      2222      2219      2217      2220      2223
      2220      2223      2226      2227      2220      2223      2226      2228
      2220      2223      2226      2229      2221      2220      2223      2224
      2221      2220      2223      2225      2221      2220      2223      2226
      2222      2220      2223      2224      2222      2220      2223      2225
      2222      2220      2223      2226      2223      2226      2229      2230
      2223      2226      2229      2231      2223      2226      2229      2232
      2224      2223      2226      2227      2224      2223      2226      2228
      2224      2223      2226      2229      2225      2223      2226      2227
      2225      2223      2226      2228      2225      2223      2226      2229
      2226      2229      2232      2233      2226      2229      2232      2234
      2226      2229      2232      2235      2227      2226      2229      2230
      2227      2226      2229      2231      2227      2226      2229      2232
      2228      2226      2229      2230      2228      2226      2229      2231
      2228      2226      2229      2232      2229      2232      2235      2236
      2229      2232      2235      2237      2229      2232      2235      2238
      2230      2229      2232      2233      2230      2229      2232      2234
      2230      2229      2232      2235      2231      2229      2232      2233
      2231      2229      2232      2234      2231      2229      2232      2235
      2232      2235      2238      2239      2232      2235      2238      2240
      2232      2235      2238      2241      2233      2232      2235      2236
      2233      2232      2235      2237      2233      2232      2235      2238
      2234      2232      2235      2236      2234      2232      2235      2237
      2234      2232      2235      2238      2235      2238      2241      2242
      2235      2238      2241      2243      2235      2238      2241      2244
      2236      2235      2238      2239      2236      2235      2238      2240
      2236      2235      2238      2241      2237      2235      2238      2239
      2237      2235      2238      2240      2237      2235      2238      2241
      2238      2241      2244      2245      2238      2241      2244      2246
      2238      2241      2244      2247      2239      2238      2241      2242
      2239      2238      2241      2243      2239      2238      2241      2244
      2240      2238      2241      2242      2240      2238      2241      2243
      2240      2238      2241      2244      2241      2244      2247      2248
      2241      2244      2247      2249      2241      2244      2247      2250
      2242      2241      2244      2245      2242      2241      2244      2246
      2242      2241      2244      2247      2243      2241      2244      2245
      2243      2241      2244      2246      2243      2241      2244      2247
      2245      2244      2247      2248      2245      2244      2247      2249
      2245      2244      2247      2250      2246      2244      2247      2248
      2246      2244      2247      2249      2246      2244      2247      2250
      2251      2252      2267      2268      2251      2252      2267      2269
      2251      2252      2267      2273      2252      2251      2255      2256
      2252      2251      2255      2257      2252      2251      2255      2258
      2252      2251      2259      2260      2252      2251      2259      2261
      2252      2251      2259      2262      2252      2251      2263      2264
      2252      2251      2263      2265      2252      2251      2263      2266
      2252      2267      2273      2270      2253      2252      2251      2255
      2253      2252      2251      2259      2253      2252      2251      2263
      2253      2252      2267      2268      2253      2252      2267      2269
      2253      2252      2267      2273      2254      2252      2251      2255
      2254      2252      2251      2259      2254      2252      2251      2263
      2254      2252      2267      2268      2254      2252      2267      2269
      2254      2252      2267      2273      2255      2251      2252      2267
      2255      2251      2259      2260      2255      2251      2259      2261
      2255      2251      2259      2262      2255      2251      2263      2264
      2255      2251      2263      2265      2255      2251      2263      2266
      2256      2255      2251      2259      2256      2255      2251      2263
      2257      2255      2251      2259      2257      2255      2251      2263
      2258      2255      2251      2259      2258      2255      2251      2263
      2259      2251      2252      2267      2259      2251      2263      2264
      2259      2251      2263      2265      2259      2251      2263      2266
      2260      2259      2251      2263      2261      2259      2251      2263
      2262      2259      2251      2263      2263      2251      2252      2267
      2267      2273      2270      2271      2267      2273      2270      2272
      2267      2273      2270      2274      2268      2267      2273      2270
      2269      2267      2273      2270      2270      2274      2275      2276
      2270      2274      2275      2277      2270      2274      2275      2278
      2271      2270      2274      2275      2272      2270      2274      2275
      2273      2270      2274      2275      2274      2275      2278      2279
      2274      2275      2278      2280      2274      2275      2278      2286
      2275      2278      2280      2281      2275      2278      2286      2287
      2275      2278      2286      2288      2275      2278      2286      2289
      2276      2275      2278      2279      2276      2275      2278      2280
      2276      2275      2278      2286      2277      2275      2278      2279
      2277      2275      2278      2280      2277      2275      2278      2286
      2278      2280      2281      2282      2278      2280      2281      2283
      2278      2286      2289      2290      2279      2278      2280      2281
      2279      2278      2286      2287      2279      2278      2286      2288
      2279      2278      2286      2289      2280      2278      2286      2287
      2280      2278      2286      2288      2280      2278      2286      2289
      2280      2281      2283      2284      2280      2281      2283      2285
      2280      2281      2283      2295      2281      2280      2278      2286
      2281      2283      2295      2296      2281      2283      2295      2297
      2281      2283      2295      2298      2282      2281      2283      2284
      2282      2281      2283      2285      2282      2281      2283      2295
      2283      2295      2298      2299      2283      2295      2298      2300
      2283      2295      2298      2301      2284      2283      2295      2296
      2284      2283      2295      2297      2284      2283      2295      2298
      2285      2283      2295      2296      2285      2283      2295      2297
      2285      2283      2295      2298      2286      2289      2290      2291
      2286      2289      2290      2292      2287      2286      2289      2290
      2288      2286      2289      2290      2289      2290      2292      2293
      2289      2290      2292      2294      2289      2290      2292      2342
      2290      2292      2342      2343      2290      2292      2342      2344
      2290      2292      2342      2345      2291      2290      2292      2293
      2291      2290      2292      2294      2291      2290      2292      2342
      2292      2342      2345      2346      2292      2342      2345      2347
      2292      2342      2345      2348      2293      2292      2342      2343
      2293      2292      2342      2344      2293      2292      2342      2345
      2294      2292      2342      2343      2294      2292      2342      2344
      2294      2292      2342      2345      2295      2298      2301      2302
      2295      2298      2301      2303      2295      2298      2301      2304
      2296      2295      2298      2299      2296      2295      2298      2300
      2296      2295      2298      2301      2297      2295      2298      2299
      2297      2295      2298      2300      2297      2295      2298      2301
      2298      2301      2304      2305      2298      2301      2304      2306
      2298      2301      2304      2307      2299      2298      2301      2302
      2299      2298      2301      2303      2299      2298      2301      2304
      2300      2298      2301      2302      2300      2298      2301      2303
      2300      2298      2301      2304      2301      2304      2307      2308
      2301      2304      2307      2309      2301      2304      2307      2310
      2302      2301      2304      2305      2302      2301      2304      2306
      2302      2301      2304      2307      2303      2301      2304      2305
      2303      2301      2304      2306      2303      2301      2304      2307
      2304      2307      2310      2311      2304      2307      2310      2312
      2304      2307      2310      2313      2305      2304      2307      2308
      2305      2304      2307      2309      2305      2304      2307      2310
      2306      2304      2307      2308      2306      2304      2307      2309
      2306      2304      2307      2310      2307      2310      2313      2314
      2307      2310      2313      2315      2308      2307      2310      2311
      2308      2307      2310      2312      2308      2307      2310      2313
      2309      2307      2310      2311      2309      2307      2310      2312
      2309      2307      2310      2313      2310      2313      2315      2316
      2310      2313      2315      2317      2311      2310      2313      2314
      2311      2310      2313      2315      2312      2310      2313      2314
      2312      2310      2313      2315      2313      2315      2317      2318
      2313      2315      2317      2319      2313      2315      2317      2320
      2314      2313      2315      2316      2314      2313      2315      2317
      2315      2317      2320      2321      2315      2317      2320      2322
      2315      2317      2320      2323      2316      2315      2317      2318
      2316      2315      2317      2319      2316      2315      2317      2320
      2317      2320      2323      2324      2317      2320      2323      2325
      2317      2320      2323      2326      2318      2317      2320      2321
      2318      2317      2320      2322      2318      2317      2320      2323
      2319      2317      2320      2321      2319      2317      2320      2322
      2319      2317      2320      2323      2320      2323      2326      2327
      2320      2323      2326      2328      2320      2323      2326      2329
      2321      2320      2323      2324      2321      2320      2323      2325
      2321      2320      2323      2326      2322      2320      2323      2324
      2322      2320      2323      2325      2322      2320      2323      2326
      2323      2326      2329      2330      2323      2326      2329      2331
      2323      2326      2329      2332      2324      2323      2326      2327
      2324      2323      2326      2328      2324      2323      2326      2329
      2325      2323      2326      2327      2325      2323      2326      2328
      2325      2323      2326      2329      2326      2329      2332      2333
      2326      2329      2332      2334      2326      2329      2332      2335
      2327      2326      2329      2330      2327      2326      2329      2331
      2327      2326      2329      2332      2328      2326      2329      2330
      2328      2326      2329      2331      2328      2326      2329      2332
      2329      2332      2335      2336      2329      2332      2335      2337
      2329      2332      2335      2338      2330      2329      2332      2333
      2330      2329      2332      2334      2330      2329      2332      2335
      2331      2329      2332      2333      2331      2329      2332      2334
      2331      2329      2332      2335      2332      2335      2338      2339
      2332      2335      2338      2340      2332      2335      2338      2341
      2333      2332      2335      2336      2333      2332      2335      2337
      2333      2332      2335      2338      2334      2332      2335      2336
      2334      2332      2335      2337      2334      2332      2335      2338
      2336      2335      2338      2339      2336      2335      2338      2340
      2336      2335      2338      2341      2337      2335      2338      2339
      2337      2335      2338      2340      2337      2335      2338      2341
      2342      2345      2348      2349      2342      2345      2348      2350
      2342      2345      2348      2351      2343      2342      2345      2346
      2343      2342      2345      2347      2343      2342      2345      2348
      2344      2342      2345      2346      2344      2342      2345      2347
      2344      2342      2345      2348      2345      2348      2351      2352
      2345      2348      2351      2353      2345      2348      2351      2354
      2346      2345      2348      2349      2346      2345      2348      2350
      2346      2345      2348      2351      2347      2345      2348      2349
      2347      2345      2348      2350      2347      2345      2348      2351
      2348      2351      2354      2355      2348      2351      2354      2356
      2348      2351      2354      2357      2349      2348      2351      2352
      2349      2348      2351      2353      2349      2348      2351      2354
      2350      2348      2351      2352      2350      2348      2351      2353
      2350      2348      2351      2354      2351      2354      2357      2358
      2351      2354      2357      2359      2351      2354      2357      2360
      2352      2351      2354      2355      2352      2351      2354      2356
      2352      2351      2354      2357      2353      2351      2354      2355
      2353      2351      2354      2356      2353      2351      2354      2357
      2354      2357      2360      2361      2354      2357      2360      2362
      2354      2357      2360      2363      2355      2354      2357      2358
      2355      2354      2357      2359      2355      2354      2357      2360
      2356      2354      2357      2358      2356      2354      2357      2359
      2356      2354      2357      2360      2357      2360      2363      2364
      2357      2360      2363      2365      2357      2360      2363      2366
      2358      2357      2360      2361      2358      2357      2360      2362
      2358      2357      2360      2363      2359      2357      2360      2361
      2359      2357      2360      2362      2359      2357      2360      2363
      2360      2363      2366      2367      2360      2363      2366      2368
      2360      2363      2366      2369      2361      2360      2363      2364
      2361      2360      2363      2365      2361      2360      2363      2366
      2362      2360      2363      2364      2362      2360      2363      2365
      2362      2360      2363      2366      2363      2366      2369      2370
      2363      2366      2369      2371      2363      2366      2369      2372
      2364      2363      2366      2367      2364      2363      2366      2368
      2364      2363      2366      2369      2365      2363      2366      2367
      2365      2363      2366      2368      2365      2363      2366      2369
      2366      2369      2372      2373      2366      2369      2372      2374
      2366      2369      2372      2375      2367      2366      2369      2370
      2367      2366      2369      2371      2367      2366      2369      2372
      2368      2366      2369      2370      2368      2366      2369      2371
      2368      2366      2369      2372      2369      2372      2375      2376
      2369      2372      2375      2377      2369      2372      2375      2378
      2370      2369      2372      2373      2370      2369      2372      2374
      2370      2369      2372      2375      2371      2369      2372      2373
      2371      2369      2372      2374      2371      2369      2372      2375
      2372      2375      2378      2379      2372      2375      2378      2380
      2372      2375      2378      2381      2373      2372      2375      2376
      2373      2372      2375      2377      2373      2372      2375      2378
      2374      2372      2375      2376      2374      2372      2375      2377
      2374      2372      2375      2378      2375      2378      2381      2382
      2375      2378      2381      2383      2375      2378      2381      2384
      2376      2375      2378      2379      2376      2375      2378      2380
      2376      2375      2378      2381      2377      2375      2378      2379
      2377      2375      2378      2380      2377      2375      2378      2381
      2379      2378      2381      2382      2379      2378      2381      2383
      2379      2378      2381      2384      2380      2378      2381      2382
      2380      2378      2381      2383      2380      2378      2381      2384
      2385      2386      2401      2402      2385      2386      2401      2403
      2385      2386      2401      2407      2386      2385      2389      2390
      2386      2385      2389      2391      2386      2385      2389      2392
      2386      2385      2393      2394      2386      2385      2393      2395
      2386      2385      2393      2396      2386      2385      2397      2398
      2386      2385      2397      2399      2386      2385      2397      2400
      2386      2401      2407      2404      2387      2386      2385      2389
      2387      2386      2385      2393      2387      2386      2385      2397
      2387      2386      2401      2402      2387      2386      2401      2403
      2387      2386      2401      2407      2388      2386      2385      2389
      2388      2386      2385      2393      2388      2386      2385      2397
      2388      2386      2401      2402      2388      2386      2401      2403
      2388      2386      2401      2407      2389      2385      2386      2401
      2389      2385      2393      2394      2389      2385      2393      2395
      2389      2385      2393      2396      2389      2385      2397      2398
      2389      2385      2397      2399      2389      2385      2397      2400
      2390      2389      2385      2393      2390      2389      2385      2397
      2391      2389      2385      2393      2391      2389      2385      2397
      2392      2389      2385      2393      2392      2389      2385      2397
      2393      2385      2386      2401      2393      2385      2397      2398
      2393      2385      2397      2399      2393      2385      2397      2400
      2394      2393      2385      2397      2395      2393      2385      2397
      2396      2393      2385      2397      2397      2385      2386      2401
      2401      2407      2404      2405      2401      2407      2404      2406
      2401      2407      2404      2408      2402      2401      2407      2404
      2403      2401      2407      2404      2404      2408      2409      2410
      2404      2408      2409      2411      2404      2408      2409      2412
      2405      2404      2408      2409      2406      2404      2408      2409
      2407      2404      2408      2409      2408      2409      2412      2413
      2408      2409      2412      2414      2408      2409      2412      2420
      2409      2412      2414      2415      2409      2412      2420      2421
      2409      2412      2420      2422      2409      2412      2420      2423
      2410      2409      2412      2413      2410      2409      2412      2414
      2410      2409      2412      2420      2411      2409      2412      2413
      2411      2409      2412      2414      2411      2409      2412      2420
      2412      2414      2415      2416      2412      2414      2415      2417
      2412      2420      2423      2424      2413      2412      2414      2415
      2413      2412      2420      2421      2413      2412      2420      2422
      2413      2412      2420      2423      2414      2412      2420      2421
      2414      2412      2420      2422      2414      2412      2420      2423
      2414      2415      2417      2418      2414      2415      2417      2419
      2414      2415      2417      2429      2415      2414      2412      2420
      2415      2417      2429      2430      2415      2417      2429      2431
      2415      2417      2429      2432      2416      2415      2417      2418
      2416      2415      2417      2419      2416      2415      2417      2429
      2417      2429      2432      2433      2417      2429      2432      2434
      2417      2429      2432      2435      2418      2417      2429      2430
      2418      2417      2429      2431      2418      2417      2429      2432
      2419      2417      2429      2430      2419      2417      2429      2431
      2419      2417      2429      2432      2420      2423      2424      2425
      2420      2423      2424      2426      2421      2420      2423      2424
      2422      2420      2423      2424      2423      2424      2426      2427
      2423      2424      2426      2428      2423      2424      2426      2476
      2424      2426      2476      2477      2424      2426      2476      2478
      2424      2426      2476      2479      2425      2424      2426      2427
      2425      2424      2426      2428      2425      2424      2426      2476
      2426      2476      2479      2480      2426      2476      2479      2481
      2426      2476      2479      2482      2427      2426      2476      2477
      2427      2426      2476      2478      2427      2426      2476      2479
      2428      2426      2476      2477      2428      2426      2476      2478
      2428      2426      2476      2479      2429      2432      2435      2436
      2429      2432      2435      2437      2429      2432      2435      2438
      2430      2429      2432      2433      2430      2429      2432      2434
      2430      2429      2432      2435      2431      2429      2432      2433
      2431      2429      2432      2434      2431      2429      2432      2435
      2432      2435      2438      2439      2432      2435      2438      2440
      2432      2435      2438      2441      2433      2432      2435      2436
      2433      2432      2435      2437      2433      2432      2435      2438
      2434      2432      2435      2436      2434      2432      2435      2437
      2434      2432      2435      2438      2435      2438      2441      2442
      2435      2438      2441      2443      2435      2438      2441      2444
      2436      2435      2438      2439      2436      2435      2438      2440
      2436      2435      2438      2441      2437      2435      2438      2439
      2437      2435      2438      2440      2437      2435      2438      2441
      2438      2441      2444      2445      2438      2441      2444      2446
      2438      2441      2444      2447      2439      2438      2441      2442
      2439      2438      2441      2443      2439      2438      2441      2444
      2440      2438      2441      2442      2440      2438      2441      2443
      2440      2438      2441      2444      2441      2444      2447      2448
      2441      2444      2447      2449      2442      2441      2444      2445
      2442      2441      2444      2446      2442      2441      2444      2447
      2443      2441      2444      2445      2443      2441      2444      2446
      2443      2441      2444      2447      2444      2447      2449      2450
      2444      2447      2449      2451      2445      2444      2447      2448
      2445      2444      2447      2449      2446      2444      2447      2448
      2446      2444      2447      2449      2447      2449      2451      2452
      2447      2449      2451      2453      2447      2449      2451      2454
      2448      2447      2449      2450      2448      2447      2449      2451
      2449      2451      2454      2455      2449      2451      2454      2456
      2449      2451      2454      2457      2450      2449      2451      2452
      2450      2449      2451      2453      2450      2449      2451      2454
      2451      2454      2457      2458      2451      2454      2457      2459
      2451      2454      2457      2460      2452      2451      2454      2455
      2452      2451      2454      2456      2452      2451      2454      2457
      2453      2451      2454      2455      2453      2451      2454      2456
      2453      2451      2454      2457      2454      2457      2460      2461
      2454      2457      2460      2462      2454      2457      2460      2463
      2455      2454      2457      2458      2455      2454      2457      2459
      2455      2454      2457      2460      2456      2454      2457      2458
      2456      2454      2457      2459      2456      2454      2457      2460
      2457      2460      2463      2464      2457      2460      2463      2465
      2457      2460      2463      2466      2458      2457      2460      2461
      2458      2457      2460      2462      2458      2457      2460      2463
      2459      2457      2460      2461      2459      2457      2460      2462
      2459      2457      2460      2463      2460      2463      2466      2467
      2460      2463      2466      2468      2460      2463      2466      2469
      2461      2460      2463      2464      2461      2460      2463      2465
      2461      2460      2463      2466      2462      2460      2463      2464
      2462      2460      2463      2465      2462      2460      2463      2466
      2463      2466      2469      2470      2463      2466      2469      2471
      2463      2466      2469      2472      2464      2463      2466      2467
      2464      2463      2466      2468      2464      2463      2466      2469
      2465      2463      2466      2467      2465      2463      2466      2468
      2465      2463      2466      2469      2466      2469      2472      2473
      2466      2469      2472      2474      2466      2469      2472      2475
      2467      2466      2469      2470      2467      2466      2469      2471
      2467      2466      2469      2472      2468      2466      2469      2470
      2468      2466      2469      2471      2468      2466      2469      2472
      2470      2469      2472      2473      2470      2469      2472      2474
      2470      2469      2472      2475      2471      2469      2472      2473
      2471      2469      2472      2474      2471      2469      2472      2475
      2476      2479      2482      2483      2476      2479      2482      2484
      2476      2479      2482      2485      2477      2476      2479      2480
      2477      2476      2479      2481      2477      2476      2479      2482
      2478      2476      2479      2480      2478      2476      2479      2481
      2478      2476      2479      2482      2479      2482      2485      2486
      2479      2482      2485      2487      2479      2482      2485      2488
      2480      2479      2482      2483      2480      2479      2482      2484
      2480      2479      2482      2485      2481      2479      2482      2483
      2481      2479      2482      2484      2481      2479      2482      2485
      2482      2485      2488      2489      2482      2485      2488      2490
      2482      2485      2488      2491      2483      2482      2485      2486
      2483      2482      2485      2487      2483      2482      2485      2488
      2484      2482      2485      2486      2484      2482      2485      2487
      2484      2482      2485      2488      2485      2488      2491      2492
      2485      2488      2491      2493      2485      2488      2491      2494
      2486      2485      2488      2489      2486      2485      2488      2490
      2486      2485      2488      2491      2487      2485      2488      2489
      2487      2485      2488      2490      2487      2485      2488      2491
      2488      2491      2494      2495      2488      2491      2494      2496
      2488      2491      2494      2497      2489      2488      2491      2492
      2489      2488      2491      2493      2489      2488      2491      2494
      2490      2488      2491      2492      2490      2488      2491      2493
      2490      2488      2491      2494      2491      2494      2497      2498
      2491      2494      2497      2499      2491      2494      2497      2500
      2492      2491      2494      2495      2492      2491      2494      2496
      2492      2491      2494      2497      2493      2491      2494      2495
      2493      2491      2494      2496      2493      2491      2494      2497
      2494      2497      2500      2501      2494      2497      2500      2502
      2494      2497      2500      2503      2495      2494      2497      2498
      2495      2494      2497      2499      2495      2494      2497      2500
      2496      2494      2497      2498      2496      2494      2497      2499
      2496      2494      2497      2500      2497      2500      2503      2504
      2497      2500      2503      2505      2497      2500      2503      2506
      2498      2497      2500      2501      2498      2497      2500      2502
      2498      2497      2500      2503      2499      2497      2500      2501
      2499      2497      2500      2502      2499      2497      2500      2503
      2500      2503      2506      2507      2500      2503      2506      2508
      2500      2503      2506      2509      2501      2500      2503      2504
      2501      2500      2503      2505      2501      2500      2503      2506
      2502      2500      2503      2504      2502      2500      2503      2505
      2502      2500      2503      2506      2503      2506      2509      2510
      2503      2506      2509      2511      2503      2506      2509      2512
      2504      2503      2506      2507      2504      2503      2506      2508
      2504      2503      2506      2509      2505      2503      2506      2507
      2505      2503      2506      2508      2505      2503      2506      2509
      2506      2509      2512      2513      2506      2509      2512      2514
      2506      2509      2512      2515      2507      2506      2509      2510
      2507      2506      2509      2511      2507      2506      2509      2512
      2508      2506      2509      2510      2508      2506      2509      2511
      2508      2506      2509      2512      2509      2512      2515      2516
      2509      2512      2515      2517      2509      2512      2515      2518
      2510      2509      2512      2513      2510      2509      2512      2514
      2510      2509      2512      2515      2511      2509      2512      2513
      2511      2509      2512      2514      2511      2509      2512      2515
      2513      2512      2515      2516      2513      2512      2515      2517
      2513      2512      2515      2518      2514      2512      2515      2516
      2514      2512      2515      2517      2514      2512      2515      2518
      2519      2520      2535      2536      2519      2520      2535      2537
      2519      2520      2535      2541      2520      2519      2523      2524
      2520      2519      2523      2525      2520      2519      2523      2526
      2520      2519      2527      2528      2520      2519      2527      2529
      2520      2519      2527      2530      2520      2519      2531      2532
      2520      2519      2531      2533      2520      2519      2531      2534
      2520      2535      2541      2538      2521      2520      2519      2523
      2521      2520      2519      2527      2521      2520      2519      2531
      2521      2520      2535      2536      2521      2520      2535      2537
      2521      2520      2535      2541      2522      2520      2519      2523
      2522      2520      2519      2527      2522      2520      2519      2531
      2522      2520      2535      2536      2522      2520      2535      2537
      2522      2520      2535      2541      2523      2519      2520      2535
      2523      2519      2527      2528      2523      2519      2527      2529
      2523      2519      2527      2530      2523      2519      2531      2532
      2523      2519      2531      2533      2523      2519      2531      2534
      2524      2523      2519      2527      2524      2523      2519      2531
      2525      2523      2519      2527      2525      2523      2519      2531
      2526      2523      2519      2527      2526      2523      2519      2531
      2527      2519      2520      2535      2527      2519      2531      2532
      2527      2519      2531      2533      2527      2519      2531      2534
      2528      2527      2519      2531      2529      2527      2519      2531
      2530      2527      2519      2531      2531      2519      2520      2535
      2535      2541      2538      2539      2535      2541      2538      2540
      2535      2541      2538      2542      2536      2535      2541      2538
      2537      2535      2541      2538      2538      2542      2543      2544
      2538      2542      2543      2545      2538      2542      2543      2546
      2539      2538      2542      2543      2540      2538      2542      2543
      2541      2538      2542      2543      2542      2543      2546      2547
      2542      2543      2546      2548      2542      2543      2546      2554
      2543      2546      2548      2549      2543      2546      2554      2555
      2543      2546      2554      2556      2543      2546      2554      2557
      2544      2543      2546      2547      2544      2543      2546      2548
      2544      2543      2546      2554      2545      2543      2546      2547
      2545      2543      2546      2548      2545      2543      2546      2554
      2546      2548      2549      2550      2546      2548      2549      2551
      2546      2554      2557      2558      2547      2546      2548      2549
      2547      2546      2554      2555      2547      2546      2554      2556
      2547      2546      2554      2557      2548      2546      2554      2555
      2548      2546      2554      2556      2548      2546      2554      2557
      2548      2549      2551      2552      2548      2549      2551      2553
      2548      2549      2551      2563      2549      2548      2546      2554
      2549      2551      2563      2564      2549      2551      2563      2565
      2549      2551      2563      2566      2550      2549      2551      2552
      2550      2549      2551      2553      2550      2549      2551      2563
      2551      2563      2566      2567      2551      2563      2566      2568
      2551      2563      2566      2569      2552      2551      2563      2564
      2552      2551      2563      2565      2552      2551      2563      2566
      2553      2551      2563      2564      2553      2551      2563      2565
      2553      2551      2563      2566      2554      2557      2558      2559
      2554      2557      2558      2560      2555      2554      2557      2558
      2556      2554      2557      2558      2557      2558      2560      2561
      2557      2558      2560      2562      2557      2558      2560      2610
      2558      2560      2610      2611      2558      2560      2610      2612
      2558      2560      2610      2613      2559      2558      2560      2561
      2559      2558      2560      2562      2559      2558      2560      2610
      2560      2610      2613      2614      2560      2610      2613      2615
      2560      2610      2613      2616      2561      2560      2610      2611
      2561      2560      2610      2612      2561      2560      2610      2613
      2562      2560      2610      2611      2562      2560      2610      2612
      2562      2560      2610      2613      2563      2566      2569      2570
      2563      2566      2569      2571      2563      2566      2569      2572
      2564      2563      2566      2567      2564      2563      2566      2568
      2564      2563      2566      2569      2565      2563      2566      2567
      2565      2563      2566      2568      2565      2563      2566      2569
      2566      2569      2572      2573      2566      2569      2572      2574
      2566      2569      2572      2575      2567      2566      2569      2570
      2567      2566      2569      2571      2567      2566      2569      2572
      2568      2566      2569      2570      2568      2566      2569      2571
      2568      2566      2569      2572      2569      2572      2575      2576
      2569      2572      2575      2577      2569      2572      2575      2578
      2570      2569      2572      2573      2570      2569      2572      2574
      2570      2569      2572      2575      2571      2569      2572      2573
      2571      2569      2572      2574      2571      2569      2572      2575
      2572      2575      2578      2579      2572      2575      2578      2580
      2572      2575      2578      2581      2573      2572      2575      2576
      2573      2572      2575      2577      2573      2572      2575      2578
      2574      2572      2575      2576      2574      2572      2575      2577
      2574      2572      2575      2578      2575      2578      2581      2582
      2575      2578      2581      2583      2576      2575      2578      2579
      2576      2575      2578      2580      2576      2575      2578      2581
      2577      2575      2578      2579      2577      2575      2578      2580
      2577      2575      2578      2581      2578      2581      2583      2584
      2578      2581      2583      2585      2579      2578      2581      2582
      2579      2578      2581      2583      2580      2578      2581      2582
      2580      2578      2581      2583      2581      2583      2585      2586
      2581      2583      2585      2587      2581      2583      2585      2588
      2582      2581      2583      2584      2582      2581      2583      2585
      2583      2585      2588      2589      2583      2585      2588      2590
      2583      2585      2588      2591      2584      2583      2585      2586
      2584      2583      2585      2587      2584      2583      2585      2588
      2585      2588      2591      2592      2585      2588      2591      2593
      2585      2588      2591      2594      2586      2585      2588      2589
      2586      2585      2588      2590      2586      2585      2588      2591
      2587      2585      2588      2589      2587      2585      2588      2590
      2587      2585      2588      2591      2588      2591      2594      2595
      2588      2591      2594      2596      2588      2591      2594      2597
      2589      2588      2591      2592      2589      2588      2591      2593
      2589      2588      2591      2594      2590      2588      2591      2592
      2590      2588      2591      2593      2590      2588      2591      2594
      2591      2594      2597      2598      2591      2594      2597      2599
      2591      2594      2597      2600      2592      2591      2594      2595
      2592      2591      2594      2596      2592      2591      2594      2597
      2593      2591      2594      2595      2593      2591      2594      2596
      2593      2591      2594      2597      2594      2597      2600      2601
      2594      2597      2600      2602      2594      2597      2600      2603
      2595      2594      2597      2598      2595      2594      2597      2599
      2595      2594      2597      2600      2596      2594      2597      2598
      2596      2594      2597      2599      2596      2594      2597      2600
      2597      2600      2603      2604      2597      2600      2603      2605
      2597      2600      2603      2606      2598      2597      2600      2601
      2598      2597      2600      2602      2598      2597      2600      2603
      2599      2597      2600      2601      2599      2597      2600      2602
      2599      2597      2600      2603      2600      2603      2606      2607
      2600      2603      2606      2608      2600      2603      2606      2609
      2601      2600      2603      2604      2601      2600      2603      2605
      2601      2600      2603      2606      2602      2600      2603      2604
      2602      2600      2603      2605      2602      2600      2603      2606
      2604      2603      2606      2607      2604      2603      2606      2608
      2604      2603      2606      2609      2605      2603      2606      2607
      2605      2603      2606      2608      2605      2603      2606      2609
      2610      2613      2616      2617      2610      2613      2616      2618
      2610      2613      2616      2619      2611      2610      2613      2614
      2611      2610      2613      2615      2611      2610      2613      2616
      2612      2610      2613      2614      2612      2610      2613      2615
      2612      2610      2613      2616      2613      2616      2619      2620
      2613      2616      2619      2621      2613      2616      2619      2622
      2614      2613      2616      2617      2614      2613      2616      2618
      2614      2613      2616      2619      2615      2613      2616      2617
      2615      2613      2616      2618      2615      2613      2616      2619
      2616      2619      2622      2623      2616      2619      2622      2624
      2616      2619      2622      2625      2617      2616      2619      2620
      2617      2616      2619      2621      2617      2616      2619      2622
      2618      2616      2619      2620      2618      2616      2619      2621
      2618      2616      2619      2622      2619      2622      2625      2626
      2619      2622      2625      2627      2619      2622      2625      2628
      2620      2619      2622      2623      2620      2619      2622      2624
      2620      2619      2622      2625      2621      2619      2622      2623
      2621      2619      2622      2624      2621      2619      2622      2625
      2622      2625      2628      2629      2622      2625      2628      2630
      2622      2625      2628      2631      2623      2622      2625      2626
      2623      2622      2625      2627      2623      2622      2625      2628
      2624      2622      2625      2626      2624      2622      2625      2627
      2624      2622      2625      2628      2625      2628      2631      2632
      2625      2628      2631      2633      2625      2628      2631      2634
      2626      2625      2628      2629      2626      2625      2628      2630
      2626      2625      2628      2631      2627      2625      2628      2629
      2627      2625      2628      2630      2627      2625      2628      2631
      2628      2631      2634      2635      2628      2631      2634      2636
      2628      2631      2634      2637      2629      2628      2631      2632
      2629      2628      2631      2633      2629      2628      2631      2634
      2630      2628      2631      2632      2630      2628      2631      2633
      2630      2628      2631      2634      2631      2634      2637      2638
      2631      2634      2637      2639      2631      2634      2637      2640
      2632      2631      2634      2635      2632      2631      2634      2636
      2632      2631      2634      2637      2633      2631      2634      2635
      2633      2631      2634      2636      2633      2631      2634      2637
      2634      2637      2640      2641      2634      2637      2640      2642
      2634      2637      2640      2643      2635      2634      2637      2638
      2635      2634      2637      2639      2635      2634      2637      2640
      2636      2634      2637      2638      2636      2634      2637      2639
      2636      2634      2637      2640      2637      2640      2643      2644
      2637      2640      2643      2645      2637      2640      2643      2646
      2638      2637      2640      2641      2638      2637      2640      2642
      2638      2637      2640      2643      2639      2637      2640      2641
      2639      2637      2640      2642      2639      2637      2640      2643
      2640      2643      2646      2647      2640      2643      2646      2648
      2640      2643      2646      2649      2641      2640      2643      2644
      2641      2640      2643      2645      2641      2640      2643      2646
      2642      2640      2643      2644      2642      2640      2643      2645
      2642      2640      2643      2646      2643      2646      2649      2650
      2643      2646      2649      2651      2643      2646      2649      2652
      2644      2643      2646      2647      2644      2643      2646      2648
      2644      2643      2646      2649      2645      2643      2646      2647
      2645      2643      2646      2648      2645      2643      2646      2649
      2647      2646      2649      2650      2647      2646      2649      2651
      2647      2646      2649      2652      2648      2646      2649      2650
      2648      2646      2649      2651      2648      2646      2649      2652
      2653      2654      2669      2670      2653      2654      2669      2671
      2653      2654      2669      2675      2654      2653      2657      2658
      2654      2653      2657      2659      2654      2653      2657      2660
      2654      2653      2661      2662      2654      2653      2661      2663
      2654      2653      2661      2664      2654      2653      2665      2666
      2654      2653      2665      2667      2654      2653      2665      2668
      2654      2669      2675      2672      2655      2654      2653      2657
      2655      2654      2653      2661      2655      2654      2653      2665
      2655      2654      2669      2670      2655      2654      2669      2671
      2655      2654      2669      2675      2656      2654      2653      2657
      2656      2654      2653      2661      2656      2654      2653      2665
      2656      2654      2669      2670      2656      2654      2669      2671
      2656      2654      2669      2675      2657      2653      2654      2669
      2657      2653      2661      2662      2657      2653      2661      2663
      2657      2653      2661      2664      2657      2653      2665      2666
      2657      2653      2665      2667      2657      2653      2665      2668
      2658      2657      2653      2661      2658      2657      2653      2665
      2659      2657      2653      2661      2659      2657      2653      2665
      2660      2657      2653      2661      2660      2657      2653      2665
      2661      2653      2654      2669      2661      2653      2665      2666
      2661      2653      2665      2667      2661      2653      2665      2668
      2662      2661      2653      2665      2663      2661      2653      2665
      2664      2661      2653      2665      2665      2653      2654      2669
      2669      2675      2672      2673      2669      2675      2672      2674
      2669      2675      2672      2676      2670      2669      2675      2672
      2671      2669      2675      2672      2672      2676      2677      2678
      2672      2676      2677      2679      2672      2676      2677      2680
      2673      2672      2676      2677      2674      2672      2676      2677
      2675      2672      2676      2677      2676      2677      2680      2681
      2676      2677      2680      2682      2676      2677      2680      2688
      2677      2680      2682      2683      2677      2680      2688      2689
      2677      2680      2688      2690      2677      2680      2688      2691
      2678      2677      2680      2681      2678      2677      2680      2682
      2678      2677      2680      2688      2679      2677      2680      2681
      2679      2677      2680      2682      2679      2677      2680      2688
      2680      2682      2683      2684      2680      2682      2683      2685
      2680      2688      2691      2692      2681      2680      2682      2683
      2681      2680      2688      2689      2681      2680      2688      2690
      2681      2680      2688      2691      2682      2680      2688      2689
      2682      2680      2688      2690      2682      2680      2688      2691
      2682      2683      2685      2686      2682      2683      2685      2687
      2682      2683      2685      2697      2683      2682      2680      2688
      2683      2685      2697      2698      2683      2685      2697      2699
      2683      2685      2697      2700      2684      2683      2685      2686
      2684      2683      2685      2687      2684      2683      2685      2697
      2685      2697      2700      2701      2685      2697      2700      2702
      2685      2697      2700      2703      2686      2685      2697      2698
      2686      2685      2697      2699      2686      2685      2697      2700
      2687      2685      2697      2698      2687      2685      2697      2699
      2687      2685      2697      2700      2688      2691      2692      2693
      2688      2691      2692      2694      2689      2688      2691      2692
      2690      2688      2691      2692      2691      2692      2694      2695
      2691      2692      2694      2696      2691      2692      2694      2744
      2692      2694      2744      2745      2692      2694      2744      2746
      2692      2694      2744      2747      2693      2692      2694      2695
      2693      2692      2694      2696      2693      2692      2694      2744
      2694      2744      2747      2748      2694      2744      2747      2749
      2694      2744      2747      2750      2695      2694      2744      2745
      2695      2694      2744      2746      2695      2694      2744      2747
      2696      2694      2744      2745      2696      2694      2744      2746
      2696      2694      2744      2747      2697      2700      2703      2704
      2697      2700      2703      2705      2697      2700      2703      2706
      2698      2697      2700      2701      2698      2697      2700      2702
      2698      2697      2700      2703      2699      2697      2700      2701
      2699      2697      2700      2702      2699      2697      2700      2703
      2700      2703      2706      2707      2700      2703      2706      2708
      2700      2703      2706      2709      2701      2700      2703      2704
      2701      2700      2703      2705      2701      2700      2703      2706
      2702      2700      2703      2704      2702      2700      2703      2705
      2702      2700      2703      2706      2703      2706      2709      2710
      2703      2706      2709      2711      2703      2706      2709      2712
      2704      2703      2706      2707      2704      2703      2706      2708
      2704      2703      2706      2709      2705      2703      2706      2707
      2705      2703      2706      2708      2705      2703      2706      2709
      2706      2709      2712      2713      2706      2709      2712      2714
      2706      2709      2712      2715      2707      2706      2709      2710
      2707      2706      2709      2711      2707      2706      2709      2712
      2708      2706      2709      2710      2708      2706      2709      2711
      2708      2706      2709      2712      2709      2712      2715      2716
      2709      2712      2715      2717      2710      2709      2712      2713
      2710      2709      2712      2714      2710      2709      2712      2715
      2711      2709      2712      2713      2711      2709      2712      2714
      2711      2709      2712      2715      2712      2715      2717      2718
      2712      2715      2717      2719      2713      2712      2715      2716
      2713      2712      2715      2717      2714      2712      2715      2716
      2714      2712      2715      2717      2715      2717      2719      2720
      2715      2717      2719      2721      2715      2717      2719      2722
      2716      2715      2717      2718      2716      2715      2717      2719
      2717      2719      2722      2723      2717      2719      2722      2724
      2717      2719      2722      2725      2718      2717      2719      2720
      2718      2717      2719      2721      2718      2717      2719      2722
      2719      2722      2725      2726      2719      2722      2725      2727
      2719      2722      2725      2728      2720      2719      2722      2723
      2720      2719      2722      2724      2720      2719      2722      2725
      2721      2719      2722      2723      2721      2719      2722      2724
      2721      2719      2722      2725      2722      2725      2728      2729
      2722      2725      2728      2730      2722      2725      2728      2731
      2723      2722      2725      2726      2723      2722      2725      2727
      2723      2722      2725      2728      2724      2722      2725      2726
      2724      2722      2725      2727      2724      2722      2725      2728
      2725      2728      2731      2732      2725      2728      2731      2733
      2725      2728      2731      2734      2726      2725      2728      2729
      2726      2725      2728      2730      2726      2725      2728      2731
      2727      2725      2728      2729      2727      2725      2728      2730
      2727      2725      2728      2731      2728      2731      2734      2735
      2728      2731      2734      2736      2728      2731      2734      2737
      2729      2728      2731      2732      2729      2728      2731      2733
      2729      2728      2731      2734      2730      2728      2731      2732
      2730      2728      2731      2733      2730      2728      2731      2734
      2731      2734      2737      2738      2731      2734      2737      2739
      2731      2734      2737      2740      2732      2731      2734      2735
      2732      2731      2734      2736      2732      2731      2734      2737
      2733      2731      2734      2735      2733      2731      2734      2736
      2733      2731      2734      2737      2734      2737      2740      2741
      2734      2737      2740      2742      2734      2737      2740      2743
      2735      2734      2737      2738      2735      2734      2737      2739
      2735      2734      2737      2740      2736      2734      2737      2738
      2736      2734      2737      2739      2736      2734      2737      2740
      2738      2737      2740      2741      2738      2737      2740      2742
      2738      2737      2740      2743      2739      2737      2740      2741
      2739      2737      2740      2742      2739      2737      2740      2743
      2744      2747      2750      2751      2744      2747      2750      2752
      2744      2747      2750      2753      2745      2744      2747      2748
      2745      2744      2747      2749      2745      2744      2747      2750
      2746      2744      2747      2748      2746      2744      2747      2749
      2746      2744      2747      2750      2747      2750      2753      2754
      2747      2750      2753      2755      2747      2750      2753      2756
      2748      2747      2750      2751      2748      2747      2750      2752
      2748      2747      2750      2753      2749      2747      2750      2751
      2749      2747      2750      2752      2749      2747      2750      2753
      2750      2753      2756      2757      2750      2753      2756      2758
      2750      2753      2756      2759      2751      2750      2753      2754
      2751      2750      2753      2755      2751      2750      2753      2756
      2752      2750      2753      2754      2752      2750      2753      2755
      2752      2750      2753      2756      2753      2756      2759      2760
      2753      2756      2759      2761      2753      2756      2759      2762
      2754      2753      2756      2757      2754      2753      2756      2758
      2754      2753      2756      2759      2755      2753      2756      2757
      2755      2753      2756      2758      2755      2753      2756      2759
      2756      2759      2762      2763      2756      2759      2762      2764
      2756      2759      2762      2765      2757      2756      2759      2760
      2757      2756      2759      2761      2757      2756      2759      2762
      2758      2756      2759      2760      2758      2756      2759      2761
      2758      2756      2759      2762      2759      2762      2765      2766
      2759      2762      2765      2767      2759      2762      2765      2768
      2760      2759      2762      2763      2760      2759      2762      2764
      2760      2759      2762      2765      2761      2759      2762      2763
      2761      2759      2762      2764      2761      2759      2762      2765
      2762      2765      2768      2769      2762      2765      2768      2770
      2762      2765      2768      2771      2763      2762      2765      2766
      2763      2762      2765      2767      2763      2762      2765      2768
      2764      2762      2765      2766      2764      2762      2765      2767
      2764      2762      2765      2768      2765      2768      2771      2772
      2765      2768      2771      2773      2765      2768      2771      2774
      2766      2765      2768      2769      2766      2765      2768      2770
      2766      2765      2768      2771      2767      2765      2768      2769
      2767      2765      2768      2770      2767      2765      2768      2771
      2768      2771      2774      2775      2768      2771      2774      2776
      2768      2771      2774      2777      2769      2768      2771      2772
      2769      2768      2771      2773      2769      2768      2771      2774
      2770      2768      2771      2772      2770      2768      2771      2773
      2770      2768      2771      2774      2771      2774      2777      2778
      2771      2774      2777      2779      2771      2774      2777      2780
      2772      2771      2774      2775      2772      2771      2774      2776
      2772      2771      2774      2777      2773      2771      2774      2775
      2773      2771      2774      2776      2773      2771      2774      2777
      2774      2777      2780      2781      2774      2777      2780      2782
      2774      2777      2780      2783      2775      2774      2777      2778
      2775      2774      2777      2779      2775      2774      2777      2780
      2776      2774      2777      2778      2776      2774      2777      2779
      2776      2774      2777      2780      2777      2780      2783      2784
      2777      2780      2783      2785      2777      2780      2783      2786
      2778      2777      2780      2781      2778      2777      2780      2782
      2778      2777      2780      2783      2779      2777      2780      2781
      2779      2777      2780      2782      2779      2777      2780      2783
      2781      2780      2783      2784      2781      2780      2783      2785
      2781      2780      2783      2786      2782      2780      2783      2784
      2782      2780      2783      2785      2782      2780      2783      2786
      2787      2788      2803      2804      2787      2788      2803      2805
      2787      2788      2803      2809      2788      2787      2791      2792
      2788      2787      2791      2793      2788      2787      2791      2794
      2788      2787      2795      2796      2788      2787      2795      2797
      2788      2787      2795      2798      2788      2787      2799      2800
      2788      2787      2799      2801      2788      2787      2799      2802
      2788      2803      2809      2806      2789      2788      2787      2791
      2789      2788      2787      2795      2789      2788      2787      2799
      2789      2788      2803      2804      2789      2788      2803      2805
      2789      2788      2803      2809      2790      2788      2787      2791
      2790      2788      2787      2795      2790      2788      2787      2799
      2790      2788      2803      2804      2790      2788      2803      2805
      2790      2788      2803      2809      2791      2787      2788      2803
      2791      2787      2795      2796      2791      2787      2795      2797
      2791      2787      2795      2798      2791      2787      2799      2800
      2791      2787      2799      2801      2791      2787      2799      2802
      2792      2791      2787      2795      2792      2791      2787      2799
      2793      2791      2787      2795      2793      2791      2787      2799
      2794      2791      2787      2795      2794      2791      2787      2799
      2795      2787      2788      2803      2795      2787      2799      2800
      2795      2787      2799      2801      2795      2787      2799      2802
      2796      2795      2787      2799      2797      2795      2787      2799
      2798      2795      2787      2799      2799      2787      2788      2803
      2803      2809      2806      2807      2803      2809      2806      2808
      2803      2809      2806      2810      2804      2803      2809      2806
      2805      2803      2809      2806      2806      2810      2811      2812
      2806      2810      2811      2813      2806      2810      2811      2814
      2807      2806      2810      2811      2808      2806      2810      2811
      2809      2806      2810      2811      2810      2811      2814      2815
      2810      2811      2814      2816      2810      2811      2814      2822
      2811      2814      2816      2817      2811      2814      2822      2823
      2811      2814      2822      2824      2811      2814      2822      2825
      2812      2811      2814      2815      2812      2811      2814      2816
      2812      2811      2814      2822      2813      2811      2814      2815
      2813      2811      2814      2816      2813      2811      2814      2822
      2814      2816      2817      2818      2814      2816      2817      2819
      2814      2822      2825      2826      2815      2814      2816      2817
      2815      2814      2822      2823      2815      2814      2822      2824
      2815      2814      2822      2825      2816      2814      2822      2823
      2816      2814      2822      2824      2816      2814      2822      2825
      2816      2817      2819      2820      2816      2817      2819      2821
      2816      2817      2819      2831      2817      2816      2814      2822
      2817      2819      2831      2832      2817      2819      2831      2833
      2817      2819      2831      2834      2818      2817      2819      2820
      2818      2817      2819      2821      2818      2817      2819      2831
      2819      2831      2834      2835      2819      2831      2834      2836
      2819      2831      2834      2837      2820      2819      2831      2832
      2820      2819      2831      2833      2820      2819      2831      2834
      2821      2819      2831      2832      2821      2819      2831      2833
      2821      2819      2831      2834      2822      2825      2826      2827
      2822      2825      2826      2828      2823      2822      2825      2826
      2824      2822      2825      2826      2825      2826      2828      2829
      2825      2826      2828      2830      2825      2826      2828      2878
      2826      2828      2878      2879      2826      2828      2878      2880
      2826      2828      2878      2881      2827      2826      2828      2829
      2827      2826      2828      2830      2827      2826      2828      2878
      2828      2878      2881      2882      2828      2878      2881      2883
      2828      2878      2881      2884      2829      2828      2878      2879
      2829      2828      2878      2880      2829      2828      2878      2881
      2830      2828      2878      2879      2830      2828      2878      2880
      2830      2828      2878      2881      2831      2834      2837      2838
      2831      2834      2837      2839      2831      2834      2837      2840
      2832      2831      2834      2835      2832      2831      2834      2836
      2832      2831      2834      2837      2833      2831      2834      2835
      2833      2831      2834      2836      2833      2831      2834      2837
      2834      2837      2840      2841      2834      2837      2840      2842
      2834      2837      2840      2843      2835      2834      2837      2838
      2835      2834      2837      2839      2835      2834      2837      2840
      2836      2834      2837      2838      2836      2834      2837      2839
      2836      2834      2837      2840      2837      2840      2843      2844
      2837      2840      2843      2845      2837      2840      2843      2846
      2838      2837      2840      2841      2838      2837      2840      2842
      2838      2837      2840      2843      2839      2837      2840      2841
      2839      2837      2840      2842      2839      2837      2840      2843
      2840      2843      2846      2847      2840      2843      2846      2848
      2840      2843      2846      2849      2841      2840      2843      2844
      2841      2840      2843      2845      2841      2840      2843      2846
      2842      2840      2843      2844      2842      2840      2843      2845
      2842      2840      2843      2846      2843      2846      2849      2850
      2843      2846      2849      2851      2844      2843      2846      2847
      2844      2843      2846      2848      2844      2843      2846      2849
      2845      2843      2846      2847      2845      2843      2846      2848
      2845      2843      2846      2849      2846      2849      2851      2852
      2846      2849      2851      2853      2847      2846      2849      2850
      2847      2846      2849      2851      2848      2846      2849      2850
      2848      2846      2849      2851      2849      2851      2853      2854
      2849      2851      2853      2855      2849      2851      2853      2856
      2850      2849      2851      2852      2850      2849      2851      2853
      2851      2853      2856      2857      2851      2853      2856      2858
      2851      2853      2856      2859      2852      2851      2853      2854
      2852      2851      2853      2855      2852      2851      2853      2856
      2853      2856      2859      2860      2853      2856      2859      2861
      2853      2856      2859      2862      2854      2853      2856      2857
      2854      2853      2856      2858      2854      2853      2856      2859
      2855      2853      2856      2857      2855      2853      2856      2858
      2855      2853      2856      2859      2856      2859      2862      2863
      2856      2859      2862      2864      2856      2859      2862      2865
      2857      2856      2859      2860      2857      2856      2859      2861
      2857      2856      2859      2862      2858      2856      2859      2860
      2858      2856      2859      2861      2858      2856      2859      2862
      2859      2862      2865      2866      2859      2862      2865      2867
      2859      2862      2865      2868      2860      2859      2862      2863
      2860      2859      2862      2864      2860      2859      2862      2865
      2861      2859      2862      2863      2861      2859      2862      2864
      2861      2859      2862      2865      2862      2865      2868      2869
      2862      2865      2868      2870      2862      2865      2868      2871
      2863      2862      2865      2866      2863      2862      2865      2867
      2863      2862      2865      2868      2864      2862      2865      2866
      2864      2862      2865      2867      2864      2862      2865      2868
      2865      2868      2871      2872      2865      2868      2871      2873
      2865      2868      2871      2874      2866      2865      2868      2869
      2866      2865      2868      2870      2866      2865      2868      2871
      2867      2865      2868      2869      2867      2865      2868      2870
      2867      2865      2868      2871      2868      2871      2874      2875
      2868      2871      2874      2876      2868      2871      2874      2877
      2869      2868      2871      2872      2869      2868      2871      2873
      2869      2868      2871      2874      2870      2868      2871      2872
      2870      2868      2871      2873      2870      2868      2871      2874
      2872      2871      2874      2875      2872      2871      2874      2876
      2872      2871      2874      2877      2873      2871      2874      2875
      2873      2871      2874      2876      2873      2871      2874      2877
      2878      2881      2884      2885      2878      2881      2884      2886
      2878      2881      2884      2887      2879      2878      2881      2882
      2879      2878      2881      2883      2879      2878      2881      2884
      2880      2878      2881      2882      2880      2878      2881      2883
      2880      2878      2881      2884      2881      2884      2887      2888
      2881      2884      2887      2889      2881      2884      2887      2890
      2882      2881      2884      2885      2882      2881      2884      2886
      2882      2881      2884      2887      2883      2881      2884      2885
      2883      2881      2884      2886      2883      2881      2884      2887
      2884      2887      2890      2891      2884      2887      2890      2892
      2884      2887      2890      2893      2885      2884      2887      2888
      2885      2884      2887      2889      2885      2884      2887      2890
      2886      2884      2887      2888      2886      2884      2887      2889
      2886      2884      2887      2890      2887      2890      2893      2894
      2887      2890      2893      2895      2887      2890      2893      2896
      2888      2887      2890      2891      2888      2887      2890      2892
      2888      2887      2890      2893      2889      2887      2890      2891
      2889      2887      2890      2892      2889      2887      2890      2893
      2890      2893      2896      2897      2890      2893      2896      2898
      2890      2893      2896      2899      2891      2890      2893      2894
      2891      2890      2893      2895      2891      2890      2893      2896
      2892      2890      2893      2894      2892      2890      2893      2895
      2892      2890      2893      2896      2893      2896      2899      2900
      2893      2896      2899      2901      2893      2896      2899      2902
      2894      2893      2896      2897      2894      2893      2896      2898
      2894      2893      2896      2899      2895      2893      2896      2897
      2895      2893      2896      2898      2895      2893      2896      2899
      2896      2899      2902      2903      2896      2899      2902      2904
      2896      2899      2902      2905      2897      2896      2899      2900
      2897      2896      2899      2901      2897      2896      2899      2902
      2898      2896      2899      2900      2898      2896      2899      2901
      2898      2896      2899      2902      2899      2902      2905      2906
      2899      2902      2905      2907      2899      2902      2905      2908
      2900      2899      2902      2903      2900      2899      2902      2904
      2900      2899      2902      2905      2901      2899      2902      2903
      2901      2899      2902      2904      2901      2899      2902      2905
      2902      2905      2908      2909      2902      2905      2908      2910
      2902      2905      2908      2911      2903      2902      2905      2906
      2903      2902      2905      2907      2903      2902      2905      2908
      2904      2902      2905      2906      2904      2902      2905      2907
      2904      2902      2905      2908      2905      2908      2911      2912
      2905      2908      2911      2913      2905      2908      2911      2914
      2906      2905      2908      2909      2906      2905      2908      2910
      2906      2905      2908      2911      2907      2905      2908      2909
      2907      2905      2908      2910      2907      2905      2908      2911
      2908      2911      2914      2915      2908      2911      2914      2916
      2908      2911      2914      2917      2909      2908      2911      2912
      2909      2908      2911      2913      2909      2908      2911      2914
      2910      2908      2911      2912      2910      2908      2911      2913
      2910      2908      2911      2914      2911      2914      2917      2918
      2911      2914      2917      2919      2911      2914      2917      2920
      2912      2911      2914      2915      2912      2911      2914      2916
      2912      2911      2914      2917      2913      2911      2914      2915
      2913      2911      2914      2916      2913      2911      2914      2917
      2915      2914      2917      2918      2915      2914      2917      2919
      2915      2914      2917      2920      2916      2914      2917      2918
      2916      2914      2917      2919      2916      2914      2917      2920
      2921      2922      2937      2938      2921      2922      2937      2939
      2921      2922      2937      2943      2922      2921      2925      2926
      2922      2921      2925      2927      2922      2921      2925      2928
      2922      2921      2929      2930      2922      2921      2929      2931
      2922      2921      2929      2932      2922      2921      2933      2934
      2922      2921      2933      2935      2922      2921      2933      2936
      2922      2937      2943      2940      2923      2922      2921      2925
      2923      2922      2921      2929      2923      2922      2921      2933
      2923      2922      2937      2938      2923      2922      2937      2939
      2923      2922      2937      2943      2924      2922      2921      2925
      2924      2922      2921      2929      2924      2922      2921      2933
      2924      2922      2937      2938      2924      2922      2937      2939
      2924      2922      2937      2943      2925      2921      2922      2937
      2925      2921      2929      2930      2925      2921      2929      2931
      2925      2921      2929      2932      2925      2921      2933      2934
      2925      2921      2933      2935      2925      2921      2933      2936
      2926      2925      2921      2929      2926      2925      2921      2933
      2927      2925      2921      2929      2927      2925      2921      2933
      2928      2925      2921      2929      2928      2925      2921      2933
      2929      2921      2922      2937      2929      2921      2933      2934
      2929      2921      2933      2935      2929      2921      2933      2936
      2930      2929      2921      2933      2931      2929      2921      2933
      2932      2929      2921      2933      2933      2921      2922      2937
      2937      2943      2940      2941      2937      2943      2940      2942
      2937      2943      2940      2944      2938      2937      2943      2940
      2939      2937      2943      2940      2940      2944      2945      2946
      2940      2944      2945      2947      2940      2944      2945      2948
      2941      2940      2944      2945      2942      2940      2944      2945
      2943      2940      2944      2945      2944      2945      2948      2949
      2944      2945      2948      2950      2944      2945      2948      2956
      2945      2948      2950      2951      2945      2948      2956      2957
      2945      2948      2956      2958      2945      2948      2956      2959
      2946      2945      2948      2949      2946      2945      2948      2950
      2946      2945      2948      2956      2947      2945      2948      2949
      2947      2945      2948      2950      2947      2945      2948      2956
      2948      2950      2951      2952      2948      2950      2951      2953
      2948      2956      2959      2960      2949      2948      2950      2951
      2949      2948      2956      2957      2949      2948      2956      2958
      2949      2948      2956      2959      2950      2948      2956      2957
      2950      2948      2956      2958      2950      2948      2956      2959
      2950      2951      2953      2954      2950      2951      2953      2955
      2950      2951      2953      2965      2951      2950      2948      2956
      2951      2953      2965      2966      2951      2953      2965      2967
      2951      2953      2965      2968      2952      2951      2953      2954
      2952      2951      2953      2955      2952      2951      2953      2965
      2953      2965      2968      2969      2953      2965      2968      2970
      2953      2965      2968      2971      2954      2953      2965      2966
      2954      2953      2965      2967      2954      2953      2965      2968
      2955      2953      2965      2966      2955      2953      2965      2967
      2955      2953      2965      2968      2956      2959      2960      2961
      2956      2959      2960      2962      2957      2956      2959      2960
      2958      2956      2959      2960      2959      2960      2962      2963
      2959      2960      2962      2964      2959      2960      2962      3012
      2960      2962      3012      3013      2960      2962      3012      3014
      2960      2962      3012      3015      2961      2960      2962      2963
      2961      2960      2962      2964      2961      2960      2962      3012
      2962      3012      3015      3016      2962      3012      3015      3017
      2962      3012      3015      3018      2963      2962      3012      3013
      2963      2962      3012      3014      2963      2962      3012      3015
      2964      2962      3012      3013      2964      2962      3012      3014
      2964      2962      3012      3015      2965      2968      2971      2972
      2965      2968      2971      2973      2965      2968      2971      2974
      2966      2965      2968      2969      2966      2965      2968      2970
      2966      2965      2968      2971      2967      2965      2968      2969
      2967      2965      2968      2970      2967      2965      2968      2971
      2968      2971      2974      2975      2968      2971      2974      2976
      2968      2971      2974      2977      2969      2968      2971      2972
      2969      2968      2971      2973      2969      2968      2971      2974
      2970      2968      2971      2972      2970      2968      2971      2973
      2970      2968      2971      2974      2971      2974      2977      2978
      2971      2974      2977      2979      2971      2974      2977      2980
      2972      2971      2974      2975      2972      2971      2974      2976
      2972      2971      2974      2977      2973      2971      2974      2975
      2973      2971      2974      2976      2973      2971      2974      2977
      2974      2977      2980      2981      2974      2977      2980      2982
      2974      2977      2980      2983      2975      2974      2977      2978
      2975      2974      2977      2979      2975      2974      2977      2980
      2976      2974      2977      2978      2976      2974      2977      2979
      2976      2974      2977      2980      2977      2980      2983      2984
      2977      2980      2983      2985      2978      2977      2980      2981
      2978      2977      2980      2982      2978      2977      2980      2983
      2979      2977      2980      2981      2979      2977      2980      2982
      2979      2977      2980      2983      2980      2983      2985      2986
      2980      2983      2985      2987      2981      2980      2983      2984
      2981      2980      2983      2985      2982      2980      2983      2984
      2982      2980      2983      2985      2983      2985      2987      2988
      2983      2985      2987      2989      2983      2985      2987      2990
      2984      2983      2985      2986      2984      2983      2985      2987
      2985      2987      2990      2991      2985      2987      2990      2992
      2985      2987      2990      2993      2986      2985      2987      2988
      2986      2985      2987      2989      2986      2985      2987      2990
      2987      2990      2993      2994      2987      2990      2993      2995
      2987      2990      2993      2996      2988      2987      2990      2991
      2988      2987      2990      2992      2988      2987      2990      2993
      2989      2987      2990      2991      2989      2987      2990      2992
      2989      2987      2990      2993      2990      2993      2996      2997
      2990      2993      2996      2998      2990      2993      2996      2999
      2991      2990      2993      2994      2991      2990      2993      2995
      2991      2990      2993      2996      2992      2990      2993      2994
      2992      2990      2993      2995      2992      2990      2993      2996
      2993      2996      2999      3000      2993      2996      2999      3001
      2993      2996      2999      3002      2994      2993      2996      2997
      2994      2993      2996      2998      2994      2993      2996      2999
      2995      2993      2996      2997      2995      2993      2996      2998
      2995      2993      2996      2999      2996      2999      3002      3003
      2996      2999      3002      3004      2996      2999      3002      3005
      2997      2996      2999      3000      2997      2996      2999      3001
      2997      2996      2999      3002      2998      2996      2999      3000
      2998      2996      2999      3001      2998      2996      2999      3002
      2999      3002      3005      3006      2999      3002      3005      3007
      2999      3002      3005      3008      3000      2999      3002      3003
      3000      2999      3002      3004      3000      2999      3002      3005
      3001      2999      3002      3003      3001      2999      3002      3004
      3001      2999      3002      3005      3002      3005      3008      3009
      3002      3005      3008      3010      3002      3005      3008      3011
      3003      3002      3005      3006      3003      3002      3005      3007
      3003      3002      3005      3008      3004      3002      3005      3006
      3004      3002      3005      3007      3004      3002      3005      3008
      3006      3005      3008      3009      3006      3005      3008      3010
      3006      3005      3008      3011      3007      3005      3008      3009
      3007      3005      3008      3010      3007      3005      3008      3011
      3012      3015      3018      3019      3012      3015      3018      3020
      3012      3015      3018      3021      3013      3012      3015      3016
      3013      3012      3015      3017      3013      3012      3015      3018
      3014      3012      3015      3016      3014      3012      3015      3017
      3014      3012      3015      3018      3015      3018      3021      3022
      3015      3018      3021      3023      3015      3018      3021      3024
      3016      3015      3018      3019      3016      3015      3018      3020
      3016      3015      3018      3021      3017      3015      3018      3019
      3017      3015      3018      3020      3017      3015      3018      3021
      3018      3021      3024      3025      3018      3021      3024      3026
      3018      3021      3024      3027      3019      3018      3021      3022
      3019      3018      3021      3023      3019      3018      3021      3024
      3020      3018      3021      3022      3020      3018      3021      3023
      3020      3018      3021      3024      3021      3024      3027      3028
      3021      3024      3027      3029      3021      3024      3027      3030
      3022      3021      3024      3025      3022      3021      3024      3026
      3022      3021      3024      3027      3023      3021      3024      3025
      3023      3021      3024      3026      3023      3021      3024      3027
      3024      3027      3030      3031      3024      3027      3030      3032
      3024      3027      3030      3033      3025      3024      3027      3028
      3025      3024      3027      3029      3025      3024      3027      3030
      3026      3024      3027      3028      3026      3024      3027      3029
      3026      3024      3027      3030      3027      3030      3033      3034
      3027      3030      3033      3035      3027      3030      3033      3036
      3028      3027      3030      3031      3028      3027      3030      3032
      3028      3027      3030      3033      3029      3027      3030      3031
      3029      3027      3030      3032      3029      3027      3030      3033
      3030      3033      3036      3037      3030      3033      3036      3038
      3030      3033      3036      3039      3031      3030      3033      3034
      3031      3030      3033      3035      3031      3030      3033      3036
      3032      3030      3033      3034      3032      3030      3033      3035
      3032      3030      3033      3036      3033      3036      3039      3040
      3033      3036      3039      3041      3033      3036      3039      3042
      3034      3033      3036      3037      3034      3033      3036      3038
      3034      3033      3036      3039      3035      3033      3036      3037
      3035      3033      3036      3038      3035      3033      3036      3039
      3036      3039      3042      3043      3036      3039      3042      3044
      3036      3039      3042      3045      3037      3036      3039      3040
      3037      3036      3039      3041      3037      3036      3039      3042
      3038      3036      3039      3040      3038      3036      3039      3041
      3038      3036      3039      3042      3039      3042      3045      3046
      3039      3042      3045      3047      3039      3042      3045      3048
      3040      3039      3042      3043      3040      3039      3042      3044
      3040      3039      3042      3045      3041      3039      3042      3043
      3041      3039      3042      3044      3041      3039      3042      3045
      3042      3045      3048      3049      3042      3045      3048      3050
      3042      3045      3048      3051      3043      3042      3045      3046
      3043      3042      3045      3047      3043      3042      3045      3048
      3044      3042      3045      3046      3044      3042      3045      3047
      3044      3042      3045      3048      3045      3048      3051      3052
      3045      3048      3051      3053      3045      3048      3051      3054
      3046      3045      3048      3049      3046      3045      3048      3050
      3046      3045      3048      3051      3047      3045      3048      3049
      3047      3045      3048      3050      3047      3045      3048      3051
      3049      3048      3051      3052      3049      3048      3051      3053
      3049      3048      3051      3054      3050      3048      3051      3052
      3050      3048      3051      3053      3050      3048      3051      3054
      3055      3059      3061      3062      3055      3059      3061      3063
      3055      3059      3064      3065      3055      3059      3064      3066
      3055      3059      3064      3070      3056      3055      3059      3060
      3056      3055      3059      3061      3056      3055      3059      3064
      3057      3055      3059      3060      3057      3055      3059      3061
      3057      3055      3059      3064      3058      3055      3059      3060
      3058      3055      3059      3061      3058      3055      3059      3064
      3059      3064      3070      3067      3060      3059      3061      3062
      3060      3059      3061      3063      3060      3059      3064      3065
      3060      3059      3064      3066      3060      3059      3064      3070
      3061      3059      3064      3065      3061      3059      3064      3066
      3061      3059      3064      3070      3062      3061      3059      3064
      3063      3061      3059      3064      3064      3070      3067      3068
      3064      3070      3067      3069      3064      3070      3067      3071
      3065      3064      3070      3067      3066      3064      3070      3067
      3067      3071      3072      3073      3067      3071      3072      3074
      3067      3071      3072      3075      3068      3067      3071      3072
      3069      3067      3071      3072      3070      3067      3071      3072
      3071      3072      3075      3076      3071      3072      3075      3077
      3071      3072      3075      3083      3072      3075      3077      3078
      3072      3075      3083      3084      3072      3075      3083      3085
      3072      3075      3083      3086      3073      3072      3075      3076
      3073      3072      3075      3077      3073      3072      3075      3083
      3074      3072      3075      3076      3074      3072      3075      3077
      3074      3072      3075      3083      3075      3077      3078      3079
      3075      3077      3078      3080      3075      3083      3086      3087
      3076      3075      3077      3078      3076      3075      3083      3084
      3076      3075      3083      3085      3076      3075      3083      3086
      3077      3075      3083      3084      3077      3075      3083      3085
      3077      3075      3083      3086      3077      3078      3080      3081
      3077      3078      3080      3082      3077      3078      3080      3092
      3078      3077      3075      3083      3078      3080      3092      3093
      3078      3080      3092      3094      3078      3080      3092      3095
      3079      3078      3080      3081      3079      3078      3080      3082
      3079      3078      3080      3092      3080      3092      3095      3096
      3080      3092      3095      3097      3080      3092      3095      3098
      3081      3080      3092      3093      3081      3080      3092      3094
      3081      3080      3092      3095      3082      3080      3092      3093
      3082      3080      3092      3094      3082      3080      3092      3095
      3083      3086      3087      3088      3083      3086      3087      3089
      3084      3083      3086      3087      3085      3083      3086      3087
      3086      3087      3089      3090      3086      3087      3089      3091
      3086      3087      3089      3139      3087      3089      3139      3140
      3087      3089      3139      3141      3087      3089      3139      3142
      3088      3087      3089      3090      3088      3087      3089      3091
      3088      3087      3089      3139      3089      3139      3142      3143
      3089      3139      3142      3144      3089      3139      3142      3145
      3090      3089      3139      3140      3090      3089      3139      3141
      3090      3089      3139      3142      3091      3089      3139      3140
      3091      3089      3139      3141      3091      3089      3139      3142
      3092      3095      3098      3099      3092      3095      3098      3100
      3092      3095      3098      3101      3093      3092      3095      3096
      3093      3092      3095      3097      3093      3092      3095      3098
      3094      3092      3095      3096      3094      3092      3095      3097
      3094      3092      3095      3098      3095      3098      3101      3102
      3095      3098      3101      3103      3095      3098      3101      3104
      3096      3095      3098      3099      3096      3095      3098      3100
      3096      3095      3098      3101      3097      3095      3098      3099
      3097      3095      3098      3100      3097      3095      3098      3101
      3098      3101      3104      3105      3098      3101      3104      3106
      3098      3101      3104      3107      3099      3098      3101      3102
      3099      3098      3101      3103      3099      3098      3101      3104
      3100      3098      3101      3102      3100      3098      3101      3103
      3100      3098      3101      3104      3101      3104      3107      3108
      3101      3104      3107      3109      3101      3104      3107      3110
      3102      3101      3104      3105      3102      3101      3104      3106
      3102      3101      3104      3107      3103      3101      3104      3105
      3103      3101      3104      3106      3103      3101      3104      3107
      3104      3107      3110      3111      3104      3107      3110      3112
      3105      3104      3107      3108      3105      3104      3107      3109
      3105      3104      3107      3110      3106      3104      3107      3108
      3106      3104      3107      3109      3106      3104      3107      3110
      3107      3110      3112      3113      3107      3110      3112      3114
      3108      3107      3110      3111      3108      3107      3110      3112
      3109      3107      3110      3111      3109      3107      3110      3112
      3110      3112      3114      3115      3110      3112      3114      3116
      3110      3112      3114      3117      3111      3110      3112      3113
      3111      3110      3112      3114      3112      3114      3117      3118
      3112      3114      3117      3119      3112      3114      3117      3120
      3113      3112      3114      3115      3113      3112      3114      3116
      3113      3112      3114      3117      3114      3117      3120      3121
      3114      3117      3120      3122      3114      3117      3120      3123
      3115      3114      3117      3118      3115      3114      3117      3119
      3115      3114      3117      3120      3116      3114      3117      3118
      3116      3114      3117      3119      3116      3114      3117      3120
      3117      3120      3123      3124      3117      3120      3123      3125
      3117      3120      3123      3126      3118      3117      3120      3121
      3118      3117      3120      3122      3118      3117      3120      3123
      3119      3117      3120      3121      3119      3117      3120      3122
      3119      3117      3120      3123      3120      3123      3126      3127
      3120      3123      3126      3128      3120      3123      3126      3129
      3121      3120      3123      3124      3121      3120      3123      3125
      3121      3120      3123      3126      3122      3120      3123      3124
      3122      3120      3123      3125      3122      3120      3123      3126
      3123      3126      3129      3130      3123      3126      3129      3131
      3123      3126      3129      3132      3124      3123      3126      3127
      3124      3123      3126      3128      3124      3123      3126      3129
      3125      3123      3126      3127      3125      3123      3126      3128
      3125      3123      3126      3129      3126      3129      3132      3133
      3126      3129      3132      3134      3126      3129      3132      3135
      3127      3126      3129      3130      3127      3126      3129      3131
      3127      3126      3129      3132      3128      3126      3129      3130
      3128      3126      3129      3131      3128      3126      3129      3132
      3129      3132      3135      3136      3129      3132      3135      3137
      3129      3132      3135      3138      3130      3129      3132      3133
      3130      3129      3132      3134      3130      3129      3132      3135
      3131      3129      3132      3133      3131      3129      3132      3134
      3131      3129      3132      3135      3133      3132      3135      3136
      3133      3132      3135      3137      3133      3132      3135      3138
      3134      3132      3135      3136      3134      3132      3135      3137
      3134      3132      3135      3138      3139      3142      3145      3146
      3139      3142      3145      3147      3139      3142      3145      3148
      3140      3139      3142      3143      3140      3139      3142      3144
      3140      3139      3142      3145      3141      3139      3142      3143
      3141      3139      3142      3144      3141      3139      3142      3145
      3142      3145      3148      3149      3142      3145      3148      3150
      3142      3145      3148      3151      3143      3142      3145      3146
      3143      3142      3145      3147      3143      3142      3145      3148
      3144      3142      3145      3146      3144      3142      3145      3147
      3144      3142      3145      3148      3145      3148      3151      3152
      3145      3148      3151      3153      3145      3148      3151      3154
      3146      3145      3148      3149      3146      3145      3148      3150
      3146      3145      3148      3151      3147      3145      3148      3149
      3147      3145      3148      3150      3147      3145      3148      3151
      3148      3151      3154      3155      3148      3151      3154      3156
      3148      3151      3154      3157      3149      3148      3151      3152
      3149      3148      3151      3153      3149      3148      3151      3154
      3150      3148      3151      3152      3150      3148      3151      3153
      3150      3148      3151      3154      3151      3154      3157      3158
      3151      3154      3157      3159      3151      3154      3157      3160
      3152      3151      3154      3155      3152      3151      3154      3156
      3152      3151      3154      3157      3153      3151      3154      3155
      3153      3151      3154      3156      3153      3151      3154      3157
      3154      3157      3160      3161      3154      3157      3160      3162
      3154      3157      3160      3163      3155      3154      3157      3158
      3155      3154      3157      3159      3155      3154      3157      3160
      3156      3154      3157      3158      3156      3154      3157      3159
      3156      3154      3157      3160      3157      3160      3163      3164
      3157      3160      3163      3165      3157      3160      3163      3166
      3158      3157      3160      3161      3158      3157      3160      3162
      3158      3157      3160      3163      3159      3157      3160      3161
      3159      3157      3160      3162      3159      3157      3160      3163
      3160      3163      3166      3167      3160      3163      3166      3168
      3160      3163      3166      3169      3161      3160      3163      3164
      3161      3160      3163      3165      3161      3160      3163      3166
      3162      3160      3163      3164      3162      3160      3163      3165
      3162      3160      3163      3166      3163      3166      3169      3170
      3163      3166      3169      3171      3163      3166      3169      3172
      3164      3163      3166      3167      3164      3163      3166      3168
      3164      3163      3166      3169      3165      3163      3166      3167
      3165      3163      3166      3168      3165      3163      3166      3169
      3166      3169      3172      3173      3166      3169      3172      3174
      3166      3169      3172      3175      3167      3166      3169      3170
      3167      3166      3169      3171      3167      3166      3169      3172
      3168      3166      3169      3170      3168      3166      3169      3171
      3168      3166      3169      3172      3169      3172      3175      3176
      3169      3172      3175      3177      3169      3172      3175      3178
      3170      3169      3172      3173      3170      3169      3172      3174
      3170      3169      3172      3175      3171      3169      3172      3173
      3171      3169      3172      3174      3171      3169      3172      3175
      3172      3175      3178      3179      3172      3175      3178      3180
      3172      3175      3178      3181      3173      3172      3175      3176
      3173      3172      3175      3177      3173      3172      3175      3178
      3174      3172      3175      3176      3174      3172      3175      3177
      3174      3172      3175      3178      3176      3175      3178      3179
      3176      3175      3178      3180      3176      3175      3178      3181
      3177      3175      3178      3179      3177      3175      3178      3180
      3177      3175      3178      3181      3182      3186      3188      3189
      3182      3186      3188      3190      3182      3186      3191      3192
      3182      3186      3191      3193      3182      3186      3191      3197
      3183      3182      3186      3187      3183      3182      3186      3188
      3183      3182      3186      3191      3184      3182      3186      3187
      3184      3182      3186      3188      3184      3182      3186      3191
      3185      3182      3186      3187      3185      3182      3186      3188
      3185      3182      3186      3191      3186      3191      3197      3194
      3187      3186      3188      3189      3187      3186      3188      3190
      3187      3186      3191      3192      3187      3186      3191      3193
      3187      3186      3191      3197      3188      3186      3191      3192
      3188      3186      3191      3193      3188      3186      3191      3197
      3189      3188      3186      3191      3190      3188      3186      3191
      3191      3197      3194      3195      3191      3197      3194      3196
      3191      3197      3194      3198      3192      3191      3197      3194
      3193      3191      3197      3194      3194      3198      3199      3200
      3194      3198      3199      3201      3194      3198      3199      3202
      3195      3194      3198      3199      3196      3194      3198      3199
      3197      3194      3198      3199      3198      3199      3202      3203
      3198      3199      3202      3204      3198      3199      3202      3210
      3199      3202      3204      3205      3199      3202      3210      3211
      3199      3202      3210      3212      3199      3202      3210      3213
      3200      3199      3202      3203      3200      3199      3202      3204
      3200      3199      3202      3210      3201      3199      3202      3203
      3201      3199      3202      3204      3201      3199      3202      3210
      3202      3204      3205      3206      3202      3204      3205      3207
      3202      3210      3213      3214      3203      3202      3204      3205
      3203      3202      3210      3211      3203      3202      3210      3212
      3203      3202      3210      3213      3204      3202      3210      3211
      3204      3202      3210      3212      3204      3202      3210      3213
      3204      3205      3207      3208      3204      3205      3207      3209
      3204      3205      3207      3219      3205      3204      3202      3210
      3205      3207      3219      3220      3205      3207      3219      3221
      3205      3207      3219      3222      3206      3205      3207      3208
      3206      3205      3207      3209      3206      3205      3207      3219
      3207      3219      3222      3223      3207      3219      3222      3224
      3207      3219      3222      3225      3208      3207      3219      3220
      3208      3207      3219      3221      3208      3207      3219      3222
      3209      3207      3219      3220      3209      3207      3219      3221
      3209      3207      3219      3222      3210      3213      3214      3215
      3210      3213      3214      3216      3211      3210      3213      3214
      3212      3210      3213      3214      3213      3214      3216      3217
      3213      3214      3216      3218      3213      3214      3216      3266
      3214      3216      3266      3267      3214      3216      3266      3268
      3214      3216      3266      3269      3215      3214      3216      3217
      3215      3214      3216      3218      3215      3214      3216      3266
      3216      3266      3269      3270      3216      3266      3269      3271
      3216      3266      3269      3272      3217      3216      3266      3267
      3217      3216      3266      3268      3217      3216      3266      3269
      3218      3216      3266      3267      3218      3216      3266      3268
      3218      3216      3266      3269      3219      3222      3225      3226
      3219      3222      3225      3227      3219      3222      3225      3228
      3220      3219      3222      3223      3220      3219      3222      3224
      3220      3219      3222      3225      3221      3219      3222      3223
      3221      3219      3222      3224      3221      3219      3222      3225
      3222      3225      3228      3229      3222      3225      3228      3230
      3222      3225      3228      3231      3223      3222      3225      3226
      3223      3222      3225      3227      3223      3222      3225      3228
      3224      3222      3225      3226      3224      3222      3225      3227
      3224      3222      3225      3228      3225      3228      3231      3232
      3225      3228      3231      3233      3225      3228      3231      3234
      3226      3225      3228      3229      3226      3225      3228      3230
      3226      3225      3228      3231      3227      3225      3228      3229
      3227      3225      3228      3230      3227      3225      3228      3231
      3228      3231      3234      3235      3228      3231      3234      3236
      3228      3231      3234      3237      3229      3228      3231      3232
      3229      3228      3231      3233      3229      3228      3231      3234
      3230      3228      3231      3232      3230      3228      3231      3233
      3230      3228      3231      3234      3231      3234      3237      3238
      3231      3234      3237      3239      3232      3231      3234      3235
      3232      3231      3234      3236      3232      3231      3234      3237
      3233      3231      3234      3235      3233      3231      3234      3236
      3233      3231      3234      3237      3234      3237      3239      3240
      3234      3237      3239      3241      3235      3234      3237      3238
      3235      3234      3237      3239      3236      3234      3237      3238
      3236      3234      3237      3239      3237      3239      3241      3242
      3237      3239      3241      3243      3237      3239      3241      3244
      3238      3237      3239      3240      3238      3237      3239      3241
      3239      3241      3244      3245      3239      3241      3244      3246
      3239      3241      3244      3247      3240      3239      3241      3242
      3240      3239      3241      3243      3240      3239      3241      3244
      3241      3244      3247      3248      3241      3244      3247      3249
      3241      3244      3247      3250      3242      3241      3244      3245
      3242      3241      3244      3246      3242      3241      3244      3247
      3243      3241      3244      3245      3243      3241      3244      3246
      3243      3241      3244      3247      3244      3247      3250      3251
      3244      3247      3250      3252      3244      3247      3250      3253
      3245      3244      3247      3248      3245      3244      3247      3249
      3245      3244      3247      3250      3246      3244      3247      3248
      3246      3244      3247      3249      3246      3244      3247      3250
      3247      3250      3253      3254      3247      3250      3253      3255
      3247      3250      3253      3256      3248      3247      3250      3251
      3248      3247      3250      3252      3248      3247      3250      3253
      3249      3247      3250      3251      3249      3247      3250      3252
      3249      3247      3250      3253      3250      3253      3256      3257
      3250      3253      3256      3258      3250      3253      3256      3259
      3251      3250      3253      3254      3251      3250      3253      3255
      3251      3250      3253      3256      3252      3250      3253      3254
      3252      3250      3253      3255      3252      3250      3253      3256
      3253      3256      3259      3260      3253      3256      3259      3261
      3253      3256      3259      3262      3254      3253      3256      3257
      3254      3253      3256      3258      3254      3253      3256      3259
      3255      3253      3256      3257      3255      3253      3256      3258
      3255      3253      3256      3259      3256      3259      3262      3263
      3256      3259      3262      3264      3256      3259      3262      3265
      3257      3256      3259      3260      3257      3256      3259      3261
      3257      3256      3259      3262      3258      3256      3259      3260
      3258      3256      3259      3261      3258      3256      3259      3262
      3260      3259      3262      3263      3260      3259      3262      3264
      3260      3259      3262      3265      3261      3259      3262      3263
      3261      3259      3262      3264      3261      3259      3262      3265
      3266      3269      3272      3273      3266      3269      3272      3274
      3266      3269      3272      3275      3267      3266      3269      3270
      3267      3266      3269      3271      3267      3266      3269      3272
      3268      3266      3269      3270      3268      3266      3269      3271
      3268      3266      3269      3272      3269      3272      3275      3276
      3269      3272      3275      3277      3269      3272      3275      3278
      3270      3269      3272      3273      3270      3269      3272      3274
      3270      3269      3272      3275      3271      3269      3272      3273
      3271      3269      3272      3274      3271      3269      3272      3275
      3272      3275      3278      3279      3272      3275      3278      3280
      3272      3275      3278      3281      3273      3272      3275      3276
      3273      3272      3275      3277      3273      3272      3275      3278
      3274      3272      3275      3276      3274      3272      3275      3277
      3274      3272      3275      3278      3275      3278      3281      3282
      3275      3278      3281      3283      3275      3278      3281      3284
      3276      3275      3278      3279      3276      3275      3278      3280
      3276      3275      3278      3281      3277      3275      3278      3279
      3277      3275      3278      3280      3277      3275      3278      3281
      3278      3281      3284      3285      3278      3281      3284      3286
      3278      3281      3284      3287      3279      3278      3281      3282
      3279      3278      3281      3283      3279      3278      3281      3284
      3280      3278      3281      3282      3280      3278      3281      3283
      3280      3278      3281      3284      3281      3284      3287      3288
      3281      3284      3287      3289      3281      3284      3287      3290
      3282      3281      3284      3285      3282      3281      3284      3286
      3282      3281      3284      3287      3283      3281      3284      3285
      3283      3281      3284      3286      3283      3281      3284      3287
      3284      3287      3290      3291      3284      3287      3290      3292
      3284      3287      3290      3293      3285      3284      3287      3288
      3285      3284      3287      3289      3285      3284      3287      3290
      3286      3284      3287      3288      3286      3284      3287      3289
      3286      3284      3287      3290      3287      3290      3293      3294
      3287      3290      3293      3295      3287      3290      3293      3296
      3288      3287      3290      3291      3288      3287      3290      3292
      3288      3287      3290      3293      3289      3287      3290      3291
      3289      3287      3290      3292      3289      3287      3290      3293
      3290      3293      3296      3297      3290      3293      3296      3298
      3290      3293      3296      3299      3291      3290      3293      3294
      3291      3290      3293      3295      3291      3290      3293      3296
      3292      3290      3293      3294      3292      3290      3293      3295
      3292      3290      3293      3296      3293      3296      3299      3300
      3293      3296      3299      3301      3293      3296      3299      3302
      3294      3293      3296      3297      3294      3293      3296      3298
      3294      3293      3296      3299      3295      3293      3296      3297
      3295      3293      3296      3298      3295      3293      3296      3299
      3296      3299      3302      3303      3296      3299      3302      3304
      3296      3299      3302      3305      3297      3296      3299      3300
      3297      3296      3299      3301      3297      3296      3299      3302
      3298      3296      3299      3300      3298      3296      3299      3301
      3298      3296      3299      3302      3299      3302      3305      3306
      3299      3302      3305      3307      3299      3302      3305      3308
      3300      3299      3302      3303      3300      3299      3302      3304
      3300      3299      3302      3305      3301      3299      3302      3303
      3301      3299      3302      3304      3301      3299      3302      3305
      3303      3302      3305      3306      3303      3302      3305      3307
      3303      3302      3305      3308      3304      3302      3305      3306
      3304      3302      3305      3307      3304      3302      3305      3308
      3309      3310      3325      3326      3309      3310      3325      3327
      3309      3310      3325      3331      3310      3309      3313      3314
      3310      3309      3313      3315      3310      3309      3313      3316
      3310      3309      3317      3318      3310      3309      3317      3319
      3310      3309      3317      3320      3310      3309      3321      3322
      3310      3309      3321      3323      3310      3309      3321      3324
      3310      3325      3331      3328      3311      3310      3309      3313
      3311      3310      3309      3317      3311      3310      3309      3321
      3311      3310      3325      3326      3311      3310      3325      3327
      3311      3310      3325      3331      3312      3310      3309      3313
      3312      3310      3309      3317      3312      3310      3309      3321
      3312      3310      3325      3326      3312      3310      3325      3327
      3312      3310      3325      3331      3313      3309      3310      3325
      3313      3309      3317      3318      3313      3309      3317      3319
      3313      3309      3317      3320      3313      3309      3321      3322
      3313      3309      3321      3323      3313      3309      3321      3324
      3314      3313      3309      3317      3314      3313      3309      3321
      3315      3313      3309      3317      3315      3313      3309      3321
      3316      3313      3309      3317      3316      3313      3309      3321
      3317      3309      3310      3325      3317      3309      3321      3322
      3317      3309      3321      3323      3317      3309      3321      3324
      3318      3317      3309      3321      3319      3317      3309      3321
      3320      3317      3309      3321      3321      3309      3310      3325
      3325      3331      3328      3329      3325      3331      3328      3330
      3325      3331      3328      3332      3326      3325      3331      3328
      3327      3325      3331      3328      3328      3332      3333      3334
      3328      3332      3333      3335      3328      3332      3333      3336
      3329      3328      3332      3333      3330      3328      3332      3333
      3331      3328      3332      3333      3332      3333      3336      3337
      3332      3333      3336      3338      3332      3333      3336      3344
      3333      3336      3338      3339      3333      3336      3344      3345
      3333      3336      3344      3346      3333      3336      3344      3347
      3334      3333      3336      3337      3334      3333      3336      3338
      3334      3333      3336      3344      3335      3333      3336      3337
      3335      3333      3336      3338      3335      3333      3336      3344
      3336      3338      3339      3340      3336      3338      3339      3341
      3336      3344      3347      3348      3337      3336      3338      3339
      3337      3336      3344      3345      3337      3336      3344      3346
      3337      3336      3344      3347      3338      3336      3344      3345
      3338      3336      3344      3346      3338      3336      3344      3347
      3338      3339      3341      3342      3338      3339      3341      3343
      3338      3339      3341      3353      3339      3338      3336      3344
      3339      3341      3353      3354      3339      3341      3353      3355
      3339      3341      3353      3356      3340      3339      3341      3342
      3340      3339      3341      3343      3340      3339      3341      3353
      3341      3353      3356      3357      3341      3353      3356      3358
      3341      3353      3356      3359      3342      3341      3353      3354
      3342      3341      3353      3355      3342      3341      3353      3356
      3343      3341      3353      3354      3343      3341      3353      3355
      3343      3341      3353      3356      3344      3347      3348      3349
      3344      3347      3348      3350      3345      3344      3347      3348
      3346      3344      3347      3348      3347      3348      3350      3351
      3347      3348      3350      3352      3347      3348      3350      3400
      3348      3350      3400      3401      3348      3350      3400      3402
      3348      3350      3400      3403      3349      3348      3350      3351
      3349      3348      3350      3352      3349      3348      3350      3400
      3350      3400      3403      3404      3350      3400      3403      3405
      3350      3400      3403      3406      3351      3350      3400      3401
      3351      3350      3400      3402      3351      3350      3400      3403
      3352      3350      3400      3401      3352      3350      3400      3402
      3352      3350      3400      3403      3353      3356      3359      3360
      3353      3356      3359      3361      3353      3356      3359      3362
      3354      3353      3356      3357      3354      3353      3356      3358
      3354      3353      3356      3359      3355      3353      3356      3357
      3355      3353      3356      3358      3355      3353      3356      3359
      3356      3359      3362      3363      3356      3359      3362      3364
      3356      3359      3362      3365      3357      3356      3359      3360
      3357      3356      3359      3361      3357      3356      3359      3362
      3358      3356      3359      3360      3358      3356      3359      3361
      3358      3356      3359      3362      3359      3362      3365      3366
      3359      3362      3365      3367      3359      3362      3365      3368
      3360      3359      3362      3363      3360      3359      3362      3364
      3360      3359      3362      3365      3361      3359      3362      3363
      3361      3359      3362      3364      3361      3359      3362      3365
      3362      3365      3368      3369      3362      3365      3368      3370
      3362      3365      3368      3371      3363      3362      3365      3366
      3363      3362      3365      3367      3363      3362      3365      3368
      3364      3362      3365      3366      3364      3362      3365      3367
      3364      3362      3365      3368      3365      3368      3371      3372
      3365      3368      3371      3373      3366      3365      3368      3369
      3366      3365      3368      3370      3366      3365      3368      3371
      3367      3365      3368      3369      3367      3365      3368      3370
      3367      3365      3368      3371      3368      3371      3373      3374
      3368      3371      3373      3375      3369      3368      3371      3372
      3369      3368      3371      3373      3370      3368      3371      3372
      3370      3368      3371      3373      3371      3373      3375      3376
      3371      3373      3375      3377      3371      3373      3375      3378
      3372      3371      3373      3374      3372      3371      3373      3375
      3373      3375      3378      3379      3373      3375      3378      3380
      3373      3375      3378      3381      3374      3373      3375      3376
      3374      3373      3375      3377      3374      3373      3375      3378
      3375      3378      3381      3382      3375      3378      3381      3383
      3375      3378      3381      3384      3376      3375      3378      3379
      3376      3375      3378      3380      3376      3375      3378      3381
      3377      3375      3378      3379      3377      3375      3378      3380
      3377      3375      3378      3381      3378      3381      3384      3385
      3378      3381      3384      3386      3378      3381      3384      3387
      3379      3378      3381      3382      3379      3378      3381      3383
      3379      3378      3381      3384      3380      3378      3381      3382
      3380      3378      3381      3383      3380      3378      3381      3384
      3381      3384      3387      3388      3381      3384      3387      3389
      3381      3384      3387      3390      3382      3381      3384      3385
      3382      3381      3384      3386      3382      3381      3384      3387
      3383      3381      3384      3385      3383      3381      3384      3386
      3383      3381      3384      3387      3384      3387      3390      3391
      3384      3387      3390      3392      3384      3387      3390      3393
      3385      3384      3387      3388      3385      3384      3387      3389
      3385      3384      3387      3390      3386      3384      3387      3388
      3386      3384      3387      3389      3386      3384      3387      3390
      3387      3390      3393      3394      3387      3390      3393      3395
      3387      3390      3393      3396      3388      3387      3390      3391
      3388      3387      3390      3392      3388      3387      3390      3393
      3389      3387      3390      3391      3389      3387      3390      3392
      3389      3387      3390      3393      3390      3393      3396      3397
      3390      3393      3396      3398      3390      3393      3396      3399
      3391      3390      3393      3394      3391      3390      3393      3395
      3391      3390      3393      3396      3392      3390      3393      3394
      3392      3390      3393      3395      3392      3390      3393      3396
      3394      3393      3396      3397      3394      3393      3396      3398
      3394      3393      3396      3399      3395      3393      3396      3397
      3395      3393      3396      3398      3395      3393      3396      3399
      3400      3403      3406      3407      3400      3403      3406      3408
      3400      3403      3406      3409      3401      3400      3403      3404
      3401      3400      3403      3405      3401      3400      3403      3406
      3402      3400      3403      3404      3402      3400      3403      3405
      3402      3400      3403      3406      3403      3406      3409      3410
      3403      3406      3409      3411      3403      3406      3409      3412
      3404      3403      3406      3407      3404      3403      3406      3408
      3404      3403      3406      3409      3405      3403      3406      3407
      3405      3403      3406      3408      3405      3403      3406      3409
      3406      3409      3412      3413      3406      3409      3412      3414
      3406      3409      3412      3415      3407      3406      3409      3410
      3407      3406      3409      3411      3407      3406      3409      3412
      3408      3406      3409      3410      3408      3406      3409      3411
      3408      3406      3409      3412      3409      3412      3415      3416
      3409      3412      3415      3417      3409      3412      3415      3418
      3410      3409      3412      3413      3410      3409      3412      3414
      3410      3409      3412      3415      3411      3409      3412      3413
      3411      3409      3412      3414      3411      3409      3412      3415
      3412      3415      3418      3419      3412      3415      3418      3420
      3412      3415      3418      3421      3413      3412      3415      3416
      3413      3412      3415      3417      3413      3412      3415      3418
      3414      3412      3415      3416      3414      3412      3415      3417
      3414      3412      3415      3418      3415      3418      3421      3422
      3415      3418      3421      3423      3415      3418      3421      3424
      3416      3415      3418      3419      3416      3415      3418      3420
      3416      3415      3418      3421      3417      3415      3418      3419
      3417      3415      3418      3420      3417      3415      3418      3421
      3418      3421      3424      3425      3418      3421      3424      3426
      3418      3421      3424      3427      3419      3418      3421      3422
      3419      3418      3421      3423      3419      3418      3421      3424
      3420      3418      3421      3422      3420      3418      3421      3423
      3420      3418      3421      3424      3421      3424      3427      3428
      3421      3424      3427      3429      3421      3424      3427      3430
      3422      3421      3424      3425      3422      3421      3424      3426
      3422      3421      3424      3427      3423      3421      3424      3425
      3423      3421      3424      3426      3423      3421      3424      3427
      3424      3427      3430      3431      3424      3427      3430      3432
      3424      3427      3430      3433      3425      3424      3427      3428
      3425      3424      3427      3429      3425      3424      3427      3430
      3426      3424      3427      3428      3426      3424      3427      3429
      3426      3424      3427      3430      3427      3430      3433      3434
      3427      3430      3433      3435      3427      3430      3433      3436
      3428      3427      3430      3431      3428      3427      3430      3432
      3428      3427      3430      3433      3429      3427      3430      3431
      3429      3427      3430      3432      3429      3427      3430      3433
      3430      3433      3436      3437      3430      3433      3436      3438
      3430      3433      3436      3439      3431      3430      3433      3434
      3431      3430      3433      3435      3431      3430      3433      3436
      3432      3430      3433      3434      3432      3430      3433      3435
      3432      3430      3433      3436      3433      3436      3439      3440
      3433      3436      3439      3441      3433      3436      3439      3442
      3434      3433      3436      3437      3434      3433      3436      3438
      3434      3433      3436      3439      3435      3433      3436      3437
      3435      3433      3436      3438      3435      3433      3436      3439
      3437      3436      3439      3440      3437      3436      3439      3441
      3437      3436      3439      3442      3438      3436      3439      3440
      3438      3436      3439      3441      3438      3436      3439      3442
      3443      3444      3459      3460      3443      3444      3459      3461
      3443      3444      3459      3465      3444      3443      3447      3448
      3444      3443      3447      3449      3444      3443      3447      3450
      3444      3443      3451      3452      3444      3443      3451      3453
      3444      3443      3451      3454      3444      3443      3455      3456
      3444      3443      3455      3457      3444      3443      3455      3458
      3444      3459      3465      3462      3445      3444      3443      3447
      3445      3444      3443      3451      3445      3444      3443      3455
      3445      3444      3459      3460      3445      3444      3459      3461
      3445      3444      3459      3465      3446      3444      3443      3447
      3446      3444      3443      3451      3446      3444      3443      3455
      3446      3444      3459      3460      3446      3444      3459      3461
      3446      3444      3459      3465      3447      3443      3444      3459
      3447      3443      3451      3452      3447      3443      3451      3453
      3447      3443      3451      3454      3447      3443      3455      3456
      3447      3443      3455      3457      3447      3443      3455      3458
      3448      3447      3443      3451      3448      3447      3443      3455
      3449      3447      3443      3451      3449      3447      3443      3455
      3450      3447      3443      3451      3450      3447      3443      3455
      3451      3443      3444      3459      3451      3443      3455      3456
      3451      3443      3455      3457      3451      3443      3455      3458
      3452      3451      3443      3455      3453      3451      3443      3455
      3454      3451      3443      3455      3455      3443      3444      3459
      3459      3465      3462      3463      3459      3465      3462      3464
      3459      3465      3462      3466      3460      3459      3465      3462
      3461      3459      3465      3462      3462      3466      3467      3468
      3462      3466      3467      3469      3462      3466      3467      3470
      3463      3462      3466      3467      3464      3462      3466      3467
      3465      3462      3466      3467      3466      3467      3470      3471
      3466      3467      3470      3472      3466      3467      3470      3478
      3467      3470      3472      3473      3467      3470      3478      3479
      3467      3470      3478      3480      3467      3470      3478      3481
      3468      3467      3470      3471      3468      3467      3470      3472
      3468      3467      3470      3478      3469      3467      3470      3471
      3469      3467      3470      3472      3469      3467      3470      3478
      3470      3472      3473      3474      3470      3472      3473      3475
      3470      3478      3481      3482      3471      3470      3472      3473
      3471      3470      3478      3479      3471      3470      3478      3480
      3471      3470      3478      3481      3472      3470      3478      3479
      3472      3470      3478      3480      3472      3470      3478      3481
      3472      3473      3475      3476      3472      3473      3475      3477
      3472      3473      3475      3487      3473      3472      3470      3478
      3473      3475      3487      3488      3473      3475      3487      3489
      3473      3475      3487      3490      3474      3473      3475      3476
      3474      3473      3475      3477      3474      3473      3475      3487
      3475      3487      3490      3491      3475      3487      3490      3492
      3475      3487      3490      3493      3476      3475      3487      3488
      3476      3475      3487      3489      3476      3475      3487      3490
      3477      3475      3487      3488      3477      3475      3487      3489
      3477      3475      3487      3490      3478      3481      3482      3483
      3478      3481      3482      3484      3479      3478      3481      3482
      3480      3478      3481      3482      3481      3482      3484      3485
      3481      3482      3484      3486      3481      3482      3484      3534
      3482      3484      3534      3535      3482      3484      3534      3536
      3482      3484      3534      3537      3483      3482      3484      3485
      3483      3482      3484      3486      3483      3482      3484      3534
      3484      3534      3537      3538      3484      3534      3537      3539
      3484      3534      3537      3540      3485      3484      3534      3535
      3485      3484      3534      3536      3485      3484      3534      3537
      3486      3484      3534      3535      3486      3484      3534      3536
      3486      3484      3534      3537      3487      3490      3493      3494
      3487      3490      3493      3495      3487      3490      3493      3496
      3488      3487      3490      3491      3488      3487      3490      3492
      3488      3487      3490      3493      3489      3487      3490      3491
      3489      3487      3490      3492      3489      3487      3490      3493
      3490      3493      3496      3497      3490      3493      3496      3498
      3490      3493      3496      3499      3491      3490      3493      3494
      3491      3490      3493      3495      3491      3490      3493      3496
      3492      3490      3493      3494      3492      3490      3493      3495
      3492      3490      3493      3496      3493      3496      3499      3500
      3493      3496      3499      3501      3493      3496      3499      3502
      3494      3493      3496      3497      3494      3493      3496      3498
      3494      3493      3496      3499      3495      3493      3496      3497
      3495      3493      3496      3498      3495      3493      3496      3499
      3496      3499      3502      3503      3496      3499      3502      3504
      3496      3499      3502      3505      3497      3496      3499      3500
      3497      3496      3499      3501      3497      3496      3499      3502
      3498      3496      3499      3500      3498      3496      3499      3501
      3498      3496      3499      3502      3499      3502      3505      3506
      3499      3502      3505      3507      3500      3499      3502      3503
      3500      3499      3502      3504      3500      3499      3502      3505
      3501      3499      3502      3503      3501      3499      3502      3504
      3501      3499      3502      3505      3502      3505      3507      3508
      3502      3505      3507      3509      3503      3502      3505      3506
      3503      3502      3505      3507      3504      3502      3505      3506
      3504      3502      3505      3507      3505      3507      3509      3510
      3505      3507      3509      3511      3505      3507      3509      3512
      3506      3505      3507      3508      3506      3505      3507      3509
      3507      3509      3512      3513      3507      3509      3512      3514
      3507      3509      3512      3515      3508      3507      3509      3510
      3508      3507      3509      3511      3508      3507      3509      3512
      3509      3512      3515      3516      3509      3512      3515      3517
      3509      3512      3515      3518      3510      3509      3512      3513
      3510      3509      3512      3514      3510      3509      3512      3515
      3511      3509      3512      3513      3511      3509      3512      3514
      3511      3509      3512      3515      3512      3515      3518      3519
      3512      3515      3518      3520      3512      3515      3518      3521
      3513      3512      3515      3516      3513      3512      3515      3517
      3513      3512      3515      3518      3514      3512      3515      3516
      3514      3512      3515      3517      3514      3512      3515      3518
      3515      3518      3521      3522      3515      3518      3521      3523
      3515      3518      3521      3524      3516      3515      3518      3519
      3516      3515      3518      3520      3516      3515      3518      3521
      3517      3515      3518      3519      3517      3515      3518      3520
      3517      3515      3518      3521      3518      3521      3524      3525
      3518      3521      3524      3526      3518      3521      3524      3527
      3519      3518      3521      3522      3519      3518      3521      3523
      3519      3518      3521      3524      3520      3518      3521      3522
      3520      3518      3521      3523      3520      3518      3521      3524
      3521      3524      3527      3528      3521      3524      3527      3529
      3521      3524      3527      3530      3522      3521      3524      3525
      3522      3521      3524      3526      3522      3521      3524      3527
      3523      3521      3524      3525      3523      3521      3524      3526
      3523      3521      3524      3527      3524      3527      3530      3531
      3524      3527      3530      3532      3524      3527      3530      3533
      3525      3524      3527      3528      3525      3524      3527      3529
      3525      3524      3527      3530      3526      3524      3527      3528
      3526      3524      3527      3529      3526      3524      3527      3530
      3528      3527      3530      3531      3528      3527      3530      3532
      3528      3527      3530      3533      3529      3527      3530      3531
      3529      3527      3530      3532      3529      3527      3530      3533
      3534      3537      3540      3541      3534      3537      3540      3542
      3534      3537      3540      3543      3535      3534      3537      3538
      3535      3534      3537      3539      3535      3534      3537      3540
      3536      3534      3537      3538      3536      3534      3537      3539
      3536      3534      3537      3540      3537      3540      3543      3544
      3537      3540      3543      3545      3537      3540      3543      3546
      3538      3537      3540      3541      3538      3537      3540      3542
      3538      3537      3540      3543      3539      3537      3540      3541
      3539      3537      3540      3542      3539      3537      3540      3543
      3540      3543      3546      3547      3540      3543      3546      3548
      3540      3543      3546      3549      3541      3540      3543      3544
      3541      3540      3543      3545      3541      3540      3543      3546
      3542      3540      3543      3544      3542      3540      3543      3545
      3542      3540      3543      3546      3543      3546      3549      3550
      3543      3546      3549      3551      3543      3546      3549      3552
      3544      3543      3546      3547      3544      3543      3546      3548
      3544      3543      3546      3549      3545      3543      3546      3547
      3545      3543      3546      3548      3545      3543      3546      3549
      3546      3549      3552      3553      3546      3549      3552      3554
      3546      3549      3552      3555      3547      3546      3549      3550
      3547      3546      3549      3551      3547      3546      3549      3552
      3548      3546      3549      3550      3548      3546      3549      3551
      3548      3546      3549      3552      3549      3552      3555      3556
      3549      3552      3555      3557      3549      3552      3555      3558
      3550      3549      3552      3553      3550      3549      3552      3554
      3550      3549      3552      3555      3551      3549      3552      3553
      3551      3549      3552      3554      3551      3549      3552      3555
      3552      3555      3558      3559      3552      3555      3558      3560
      3552      3555      3558      3561      3553      3552      3555      3556
      3553      3552      3555      3557      3553      3552      3555      3558
      3554      3552      3555      3556      3554      3552      3555      3557
      3554      3552      3555      3558      3555      3558      3561      3562
      3555      3558      3561      3563      3555      3558      3561      3564
      3556      3555      3558      3559      3556      3555      3558      3560
      3556      3555      3558      3561      3557      3555      3558      3559
      3557      3555      3558      3560      3557      3555      3558      3561
      3558      3561      3564      3565      3558      3561      3564      3566
      3558      3561      3564      3567      3559      3558      3561      3562
      3559      3558      3561      3563      3559      3558      3561      3564
      3560      3558      3561      3562      3560      3558      3561      3563
      3560      3558      3561      3564      3561      3564      3567      3568
      3561      3564      3567      3569      3561      3564      3567      3570
      3562      3561      3564      3565      3562      3561      3564      3566
      3562      3561      3564      3567      3563      3561      3564      3565
      3563      3561      3564      3566      3563      3561      3564      3567
      3564      3567      3570      3571      3564      3567      3570      3572
      3564      3567      3570      3573      3565      3564      3567      3568
      3565      3564      3567      3569      3565      3564      3567      3570
      3566      3564      3567      3568      3566      3564      3567      3569
      3566      3564      3567      3570      3567      3570      3573      3574
      3567      3570      3573      3575      3567      3570      3573      3576
      3568      3567      3570      3571      3568      3567      3570      3572
      3568      3567      3570      3573      3569      3567      3570      3571
      3569      3567      3570      3572      3569      3567      3570      3573
      3571      3570      3573      3574      3571      3570      3573      3575
      3571      3570      3573      3576      3572      3570      3573      3574
      3572      3570      3573      3575      3572      3570      3573      3576
      3577      3578      3593      3594      3577      3578      3593      3595
      3577      3578      3593      3599      3578      3577      3581      3582
      3578      3577      3581      3583      3578      3577      3581      3584
      3578      3577      3585      3586      3578      3577      3585      3587
      3578      3577      3585      3588      3578      3577      3589      3590
      3578      3577      3589      3591      3578      3577      3589      3592
      3578      3593      3599      3596      3579      3578      3577      3581
      3579      3578      3577      3585      3579      3578      3577      3589
      3579      3578      3593      3594      3579      3578      3593      3595
      3579      3578      3593      3599      3580      3578      3577      3581
      3580      3578      3577      3585      3580      3578      3577      3589
      3580      3578      3593      3594      3580      3578      3593      3595
      3580      3578      3593      3599      3581      3577      3578      3593
      3581      3577      3585      3586      3581      3577      3585      3587
      3581      3577      3585      3588      3581      3577      3589      3590
      3581      3577      3589      3591      3581      3577      3589      3592
      3582      3581      3577      3585      3582      3581      3577      3589
      3583      3581      3577      3585      3583      3581      3577      3589
      3584      3581      3577      3585      3584      3581      3577      3589
      3585      3577      3578      3593      3585      3577      3589      3590
      3585      3577      3589      3591      3585      3577      3589      3592
      3586      3585      3577      3589      3587      3585      3577      3589
      3588      3585      3577      3589      3589      3577      3578      3593
      3593      3599      3596      3597      3593      3599      3596      3598
      3593      3599      3596      3600      3594      3593      3599      3596
      3595      3593      3599      3596      3596      3600      3601      3602
      3596      3600      3601      3603      3596      3600      3601      3604
      3597      3596      3600      3601      3598      3596      3600      3601
      3599      3596      3600      3601      3600      3601      3604      3605
      3600      3601      3604      3606      3600      3601      3604      3612
      3601      3604      3606      3607      3601      3604      3612      3613
      3601      3604      3612      3614      3601      3604      3612      3615
      3602      3601      3604      3605      3602      3601      3604      3606
      3602      3601      3604      3612      3603      3601      3604      3605
      3603      3601      3604      3606      3603      3601      3604      3612
      3604      3606      3607      3608      3604      3606      3607      3609
      3604      3612      3615      3616      3605      3604      3606      3607
      3605      3604      3612      3613      3605      3604      3612      3614
      3605      3604      3612      3615      3606      3604      3612      3613
      3606      3604      3612      3614      3606      3604      3612      3615
      3606      3607      3609      3610      3606      3607      3609      3611
      3606      3607      3609      3621      3607      3606      3604      3612
      3607      3609      3621      3622      3607      3609      3621      3623
      3607      3609      3621      3624      3608      3607      3609      3610
      3608      3607      3609      3611      3608      3607      3609      3621
      3609      3621      3624      3625      3609      3621      3624      3626
      3609      3621      3624      3627      3610      3609      3621      3622
      3610      3609      3621      3623      3610      3609      3621      3624
      3611      3609      3621      3622      3611      3609      3621      3623
      3611      3609      3621      3624      3612      3615      3616      3617
      3612      3615      3616      3618      3613      3612      3615      3616
      3614      3612      3615      3616      3615      3616      3618      3619
      3615      3616      3618      3620      3615      3616      3618      3668
      3616      3618      3668      3669      3616      3618      3668      3670
      3616      3618      3668      3671      3617      3616      3618      3619
      3617      3616      3618      3620      3617      3616      3618      3668
      3618      3668      3671      3672      3618      3668      3671      3673
      3618      3668      3671      3674      3619      3618      3668      3669
      3619      3618      3668      3670      3619      3618      3668      3671
      3620      3618      3668      3669      3620      3618      3668      3670
      3620      3618      3668      3671      3621      3624      3627      3628
      3621      3624      3627      3629      3621      3624      3627      3630
      3622      3621      3624      3625      3622      3621      3624      3626
      3622      3621      3624      3627      3623      3621      3624      3625
      3623      3621      3624      3626      3623      3621      3624      3627
      3624      3627      3630      3631      3624      3627      3630      3632
      3624      3627      3630      3633      3625      3624      3627      3628
      3625      3624      3627      3629      3625      3624      3627      3630
      3626      3624      3627      3628      3626      3624      3627      3629
      3626      3624      3627      3630      3627      3630      3633      3634
      3627      3630      3633      3635      3627      3630      3633      3636
      3628      3627      3630      3631      3628      3627      3630      3632
      3628      3627      3630      3633      3629      3627      3630      3631
      3629      3627      3630      3632      3629      3627      3630      3633
      3630      3633      3636      3637      3630      3633      3636      3638
      3630      3633      3636      3639      3631      3630      3633      3634
      3631      3630      3633      3635      3631      3630      3633      3636
      3632      3630      3633      3634      3632      3630      3633      3635
      3632      3630      3633      3636      3633      3636      3639      3640
      3633      3636      3639      3641      3634      3633      3636      3637
      3634      3633      3636      3638      3634      3633      3636      3639
      3635      3633      3636      3637      3635      3633      3636      3638
      3635      3633      3636      3639      3636      3639      3641      3642
      3636      3639      3641      3643      3637      3636      3639      3640
      3637      3636      3639      3641      3638      3636      3639      3640
      3638      3636      3639      3641      3639      3641      3643      3644
      3639      3641      3643      3645      3639      3641      3643      3646
      3640      3639      3641      3642      3640      3639      3641      3643
      3641      3643      3646      3647      3641      3643      3646      3648
      3641      3643      3646      3649      3642      3641      3643      3644
      3642      3641      3643      3645      3642      3641      3643      3646
      3643      3646      3649      3650      3643      3646      3649      3651
      3643      3646      3649      3652      3644      3643      3646      3647
      3644      3643      3646      3648      3644      3643      3646      3649
      3645      3643      3646      3647      3645      3643      3646      3648
      3645      3643      3646      3649      3646      3649      3652      3653
      3646      3649      3652      3654      3646      3649      3652      3655
      3647      3646      3649      3650      3647      3646      3649      3651
      3647      3646      3649      3652      3648      3646      3649      3650
      3648      3646      3649      3651      3648      3646      3649      3652
      3649      3652      3655      3656      3649      3652      3655      3657
      3649      3652      3655      3658      3650      3649      3652      3653
      3650      3649      3652      3654      3650      3649      3652      3655
      3651      3649      3652      3653      3651      3649      3652      3654
      3651      3649      3652      3655      3652      3655      3658      3659
      3652      3655      3658      3660      3652      3655      3658      3661
      3653      3652      3655      3656      3653      3652      3655      3657
      3653      3652      3655      3658      3654      3652      3655      3656
      3654      3652      3655      3657      3654      3652      3655      3658
      3655      3658      3661      3662      3655      3658      3661      3663
      3655      3658      3661      3664      3656      3655      3658      3659
      3656      3655      3658      3660      3656      3655      3658      3661
      3657      3655      3658      3659      3657      3655      3658      3660
      3657      3655      3658      3661      3658      3661      3664      3665
      3658      3661      3664      3666      3658      3661      3664      3667
      3659      3658      3661      3662      3659      3658      3661      3663
      3659      3658      3661      3664      3660      3658      3661      3662
      3660      3658      3661      3663      3660      3658      3661      3664
      3662      3661      3664      3665      3662      3661      3664      3666
      3662      3661      3664      3667      3663      3661      3664      3665
      3663      3661      3664      3666      3663      3661      3664      3667
      3668      3671      3674      3675      3668      3671      3674      3676
      3668      3671      3674      3677      3669      3668      3671      3672
      3669      3668      3671      3673      3669      3668      3671      3674
      3670      3668      3671      3672      3670      3668      3671      3673
      3670      3668      3671      3674      3671      3674      3677      3678
      3671      3674      3677      3679      3671      3674      3677      3680
      3672      3671      3674      3675      3672      3671      3674      3676
      3672      3671      3674      3677      3673      3671      3674      3675
      3673      3671      3674      3676      3673      3671      3674      3677
      3674      3677      3680      3681      3674      3677      3680      3682
      3674      3677      3680      3683      3675      3674      3677      3678
      3675      3674      3677      3679      3675      3674      3677      3680
      3676      3674      3677      3678      3676      3674      3677      3679
      3676      3674      3677      3680      3677      3680      3683      3684
      3677      3680      3683      3685      3677      3680      3683      3686
      3678      3677      3680      3681      3678      3677      3680      3682
      3678      3677      3680      3683      3679      3677      3680      3681
      3679      3677      3680      3682      3679      3677      3680      3683
      3680      3683      3686      3687      3680      3683      3686      3688
      3680      3683      3686      3689      3681      3680      3683      3684
      3681      3680      3683      3685      3681      3680      3683      3686
      3682      3680      3683      3684      3682      3680      3683      3685
      3682      3680      3683      3686      3683      3686      3689      3690
      3683      3686      3689      3691      3683      3686      3689      3692
      3684      3683      3686      3687      3684      3683      3686      3688
      3684      3683      3686      3689      3685      3683      3686      3687
      3685      3683      3686      3688      3685      3683      3686      3689
      3686      3689      3692      3693      3686      3689      3692      3694
      3686      3689      3692      3695      3687      3686      3689      3690
      3687      3686      3689      3691      3687      3686      3689      3692
      3688      3686      3689      3690      3688      3686      3689      3691
      3688      3686      3689      3692      3689      3692      3695      3696
      3689      3692      3695      3697      3689      3692      3695      3698
      3690      3689      3692      3693      3690      3689      3692      3694
      3690      3689      3692      3695      3691      3689      3692      3693
      3691      3689      3692      3694      3691      3689      3692      3695
      3692      3695      3698      3699      3692      3695      3698      3700
      3692      3695      3698      3701      3693      3692      3695      3696
      3693      3692      3695      3697      3693      3692      3695      3698
      3694      3692      3695      3696      3694      3692      3695      3697
      3694      3692      3695      3698      3695      3698      3701      3702
      3695      3698      3701      3703      3695      3698      3701      3704
      3696      3695      3698      3699      3696      3695      3698      3700
      3696      3695      3698      3701      3697      3695      3698      3699
      3697      3695      3698      3700      3697      3695      3698      3701
      3698      3701      3704      3705      3698      3701      3704      3706
      3698      3701      3704      3707      3699      3698      3701      3702
      3699      3698      3701      3703      3699      3698      3701      3704
      3700      3698      3701      3702      3700      3698      3701      3703
      3700      3698      3701      3704      3701      3704      3707      3708
      3701      3704      3707      3709      3701      3704      3707      3710
      3702      3701      3704      3705      3702      3701      3704      3706
      3702      3701      3704      3707      3703      3701      3704      3705
      3703      3701      3704      3706      3703      3701      3704      3707
      3705      3704      3707      3708      3705      3704      3707      3709
      3705      3704      3707      3710      3706      3704      3707      3708
      3706      3704      3707      3709      3706      3704      3707      3710
      3711      3712      3727      3728      3711      3712      3727      3729
      3711      3712      3727      3733      3712      3711      3715      3716
      3712      3711      3715      3717      3712      3711      3715      3718
      3712      3711      3719      3720      3712      3711      3719      3721
      3712      3711      3719      3722      3712      3711      3723      3724
      3712      3711      3723      3725      3712      3711      3723      3726
      3712      3727      3733      3730      3713      3712      3711      3715
      3713      3712      3711      3719      3713      3712      3711      3723
      3713      3712      3727      3728      3713      3712      3727      3729
      3713      3712      3727      3733      3714      3712      3711      3715
      3714      3712      3711      3719      3714      3712      3711      3723
      3714      3712      3727      3728      3714      3712      3727      3729
      3714      3712      3727      3733      3715      3711      3712      3727
      3715      3711      3719      3720      3715      3711      3719      3721
      3715      3711      3719      3722      3715      3711      3723      3724
      3715      3711      3723      3725      3715      3711      3723      3726
      3716      3715      3711      3719      3716      3715      3711      3723
      3717      3715      3711      3719      3717      3715      3711      3723
      3718      3715      3711      3719      3718      3715      3711      3723
      3719      3711      3712      3727      3719      3711      3723      3724
      3719      3711      3723      3725      3719      3711      3723      3726
      3720      3719      3711      3723      3721      3719      3711      3723
      3722      3719      3711      3723      3723      3711      3712      3727
      3727      3733      3730      3731      3727      3733      3730      3732
      3727      3733      3730      3734      3728      3727      3733      3730
      3729      3727      3733      3730      3730      3734      3735      3736
      3730      3734      3735      3737      3730      3734      3735      3738
      3731      3730      3734      3735      3732      3730      3734      3735
      3733      3730      3734      3735      3734      3735      3738      3739
      3734      3735      3738      3740      3734      3735      3738      3746
      3735      3738      3740      3741      3735      3738      3746      3747
      3735      3738      3746      3748      3735      3738      3746      3749
      3736      3735      3738      3739      3736      3735      3738      3740
      3736      3735      3738      3746      3737      3735      3738      3739
      3737      3735      3738      3740      3737      3735      3738      3746
      3738      3740      3741      3742      3738      3740      3741      3743
      3738      3746      3749      3750      3739      3738      3740      3741
      3739      3738      3746      3747      3739      3738      3746      3748
      3739      3738      3746      3749      3740      3738      3746      3747
      3740      3738      3746      3748      3740      3738      3746      3749
      3740      3741      3743      3744      3740      3741      3743      3745
      3740      3741      3743      3755      3741      3740      3738      3746
      3741      3743      3755      3756      3741      3743      3755      3757
      3741      3743      3755      3758      3742      3741      3743      3744
      3742      3741      3743      3745      3742      3741      3743      3755
      3743      3755      3758      3759      3743      3755      3758      3760
      3743      3755      3758      3761      3744      3743      3755      3756
      3744      3743      3755      3757      3744      3743      3755      3758
      3745      3743      3755      3756      3745      3743      3755      3757
      3745      3743      3755      3758      3746      3749      3750      3751
      3746      3749      3750      3752      3747      3746      3749      3750
      3748      3746      3749      3750      3749      3750      3752      3753
      3749      3750      3752      3754      3749      3750      3752      3802
      3750      3752      3802      3803      3750      3752      3802      3804
      3750      3752      3802      3805      3751      3750      3752      3753
      3751      3750      3752      3754      3751      3750      3752      3802
      3752      3802      3805      3806      3752      3802      3805      3807
      3752      3802      3805      3808      3753      3752      3802      3803
      3753      3752      3802      3804      3753      3752      3802      3805
      3754      3752      3802      3803      3754      3752      3802      3804
      3754      3752      3802      3805      3755      3758      3761      3762
      3755      3758      3761      3763      3755      3758      3761      3764
      3756      3755      3758      3759      3756      3755      3758      3760
      3756      3755      3758      3761      3757      3755      3758      3759
      3757      3755      3758      3760      3757      3755      3758      3761
      3758      3761      3764      3765      3758      3761      3764      3766
      3758      3761      3764      3767      3759      3758      3761      3762
      3759      3758      3761      3763      3759      3758      3761      3764
      3760      3758      3761      3762      3760      3758      3761      3763
      3760      3758      3761      3764      3761      3764      3767      3768
      3761      3764      3767      3769      3761      3764      3767      3770
      3762      3761      3764      3765      3762      3761      3764      3766
      3762      3761      3764      3767      3763      3761      3764      3765
      3763      3761      3764      3766      3763      3761      3764      3767
      3764      3767      3770      3771      3764      3767      3770      3772
      3764      3767      3770      3773      3765      3764      3767      3768
      3765      3764      3767      3769      3765      3764      3767      3770
      3766      3764      3767      3768      3766      3764      3767      3769
      3766      3764      3767      3770      3767      3770      3773      3774
      3767      3770      3773      3775      3768      3767      3770      3771
      3768      3767      3770      3772      3768      3767      3770      3773
      3769      3767      3770      3771      3769      3767      3770      3772
      3769      3767      3770      3773      3770      3773      3775      3776
      3770      3773      3775      3777      3771      3770      3773      3774
      3771      3770      3773      3775      3772      3770      3773      3774
      3772      3770      3773      3775      3773      3775      3777      3778
      3773      3775      3777      3779      3773      3775      3777      3780
      3774      3773      3775      3776      3774      3773      3775      3777
      3775      3777      3780      3781      3775      3777      3780      3782
      3775      3777      3780      3783      3776      3775      3777      3778
      3776      3775      3777      3779      3776      3775      3777      3780
      3777      3780      3783      3784      3777      3780      3783      3785
      3777      3780      3783      3786      3778      3777      3780      3781
      3778      3777      3780      3782      3778      3777      3780      3783
      3779      3777      3780      3781      3779      3777      3780      3782
      3779      3777      3780      3783      3780      3783      3786      3787
      3780      3783      3786      3788      3780      3783      3786      3789
      3781      3780      3783      3784      3781      3780      3783      3785
      3781      3780      3783      3786      3782      3780      3783      3784
      3782      3780      3783      3785      3782      3780      3783      3786
      3783      3786      3789      3790      3783      3786      3789      3791
      3783      3786      3789      3792      3784      3783      3786      3787
      3784      3783      3786      3788      3784      3783      3786      3789
      3785      3783      3786      3787      3785      3783      3786      3788
      3785      3783      3786      3789      3786      3789      3792      3793
      3786      3789      3792      3794      3786      3789      3792      3795
      3787      3786      3789      3790      3787      3786      3789      3791
      3787      3786      3789      3792      3788      3786      3789      3790
      3788      3786      3789      3791      3788      3786      3789      3792
      3789      3792      3795      3796      3789      3792      3795      3797
      3789      3792      3795      3798      3790      3789      3792      3793
      3790      3789      3792      3794      3790      3789      3792      3795
      3791      3789      3792      3793      3791      3789      3792      3794
      3791      3789      3792      3795      3792      3795      3798      3799
      3792      3795      3798      3800      3792      3795      3798      3801
      3793      3792      3795      3796      3793      3792      3795      3797
      3793      3792      3795      3798      3794      3792      3795      3796
      3794      3792      3795      3797      3794      3792      3795      3798
      3796      3795      3798      3799      3796      3795      3798      3800
      3796      3795      3798      3801      3797      3795      3798      3799
      3797      3795      3798      3800      3797      3795      3798      3801
      3802      3805      3808      3809      3802      3805      3808      3810
      3802      3805      3808      3811      3803      3802      3805      3806
      3803      3802      3805      3807      3803      3802      3805      3808
      3804      3802      3805      3806      3804      3802      3805      3807
      3804      3802      3805      3808      3805      3808      3811      3812
      3805      3808      3811      3813      3805      3808      3811      3814
      3806      3805      3808      3809      3806      3805      3808      3810
      3806      3805      3808      3811      3807      3805      3808      3809
      3807      3805      3808      3810      3807      3805      3808      3811
      3808      3811      3814      3815      3808      3811      3814      3816
      3808      3811      3814      3817      3809      3808      3811      3812
      3809      3808      3811      3813      3809      3808      3811      3814
      3810      3808      3811      3812      3810      3808      3811      3813
      3810      3808      3811      3814      3811      3814      3817      3818
      3811      3814      3817      3819      3811      3814      3817      3820
      3812      3811      3814      3815      3812      3811      3814      3816
      3812      3811      3814      3817      3813      3811      3814      3815
      3813      3811      3814      3816      3813      3811      3814      3817
      3814      3817      3820      3821      3814      3817      3820      3822
      3814      3817      3820      3823      3815      3814      3817      3818
      3815      3814      3817      3819      3815      3814      3817      3820
      3816      3814      3817      3818      3816      3814      3817      3819
      3816      3814      3817      3820      3817      3820      3823      3824
      3817      3820      3823      3825      3817      3820      3823      3826
      3818      3817      3820      3821      3818      3817      3820      3822
      3818      3817      3820      3823      3819      3817      3820      3821
      3819      3817      3820      3822      3819      3817      3820      3823
      3820      3823      3826      3827      3820      3823      3826      3828
      3820      3823      3826      3829      3821      3820      3823      3824
      3821      3820      3823      3825      3821      3820      3823      3826
      3822      3820      3823      3824      3822      3820      3823      3825
      3822      3820      3823      3826      3823      3826      3829      3830
      3823      3826      3829      3831      3823      3826      3829      3832
      3824      3823      3826      3827      3824      3823      3826      3828
      3824      3823      3826      3829      3825      3823      3826      3827
      3825      3823      3826      3828      3825      3823      3826      3829
      3826      3829      3832      3833      3826      3829      3832      3834
      3826      3829      3832      3835      3827      3826      3829      3830
      3827      3826      3829      3831      3827      3826      3829      3832
      3828      3826      3829      3830      3828      3826      3829      3831
      3828      3826      3829      3832      3829      3832      3835      3836
      3829      3832      3835      3837      3829      3832      3835      3838
      3830      3829      3832      3833      3830      3829      3832      3834
      3830      3829      3832      3835      3831      3829      3832      3833
      3831      3829      3832      3834      3831      3829      3832      3835
      3832      3835      3838      3839      3832      3835      3838      3840
      3832      3835      3838      3841      3833      3832      3835      3836
      3833      3832      3835      3837      3833      3832      3835      3838
      3834      3832      3835      3836      3834      3832      3835      3837
      3834      3832      3835      3838      3835      3838      3841      3842
      3835      3838      3841      3843      3835      3838      3841      3844
      3836      3835      3838      3839      3836      3835      3838      3840
      3836      3835      3838      3841      3837      3835      3838      3839
      3837      3835      3838      3840      3837      3835      3838      3841
      3839      3838      3841      3842      3839      3838      3841      3843
      3839      3838      3841      3844      3840      3838      3841      3842
      3840      3838      3841      3843      3840      3838      3841      3844
      3845      3846      3861      3862      3845      3846      3861      3863
      3845      3846      3861      3867      3846      3845      3849      3850
      3846      3845      3849      3851      3846      3845      3849      3852
      3846      3845      3853      3854      3846      3845      3853      3855
      3846      3845      3853      3856      3846      3845      3857      3858
      3846      3845      3857      3859      3846      3845      3857      3860
      3846      3861      3867      3864      3847      3846      3845      3849
      3847      3846      3845      3853      3847      3846      3845      3857
      3847      3846      3861      3862      3847      3846      3861      3863
      3847      3846      3861      3867      3848      3846      3845      3849
      3848      3846      3845      3853      3848      3846      3845      3857
      3848      3846      3861      3862      3848      3846      3861      3863
      3848      3846      3861      3867      3849      3845      3846      3861
      3849      3845      3853      3854      3849      3845      3853      3855
      3849      3845      3853      3856      3849      3845      3857      3858
      3849      3845      3857      3859      3849      3845      3857      3860
      3850      3849      3845      3853      3850      3849      3845      3857
      3851      3849      3845      3853      3851      3849      3845      3857
      3852      3849      3845      3853      3852      3849      3845      3857
      3853      3845      3846      3861      3853      3845      3857      3858
      3853      3845      3857      3859      3853      3845      3857      3860
      3854      3853      3845      3857      3855      3853      3845      3857
      3856      3853      3845      3857      3857      3845      3846      3861
      3861      3867      3864      3865      3861      3867      3864      3866
      3861      3867      3864      3868      3862      3861      3867      3864
      3863      3861      3867      3864      3864      3868      3869      3870
      3864      3868      3869      3871      3864      3868      3869      3872
      3865      3864      3868      3869      3866      3864      3868      3869
      3867      3864      3868      3869      3868      3869      3872      3873
      3868      3869      3872      3874      3868      3869      3872      3880
      3869      3872      3874      3875      3869      3872      3880      3881
      3869      3872      3880      3882      3869      3872      3880      3883
      3870      3869      3872      3873      3870      3869      3872      3874
      3870      3869      3872      3880      3871      3869      3872      3873
      3871      3869      3872      3874      3871      3869      3872      3880
      3872      3874      3875      3876      3872      3874      3875      3877
      3872      3880      3883      3884      3873      3872      3874      3875
      3873      3872      3880      3881      3873      3872      3880      3882
      3873      3872      3880      3883      3874      3872      3880      3881
      3874      3872      3880      3882      3874      3872      3880      3883
      3874      3875      3877      3878      3874      3875      3877      3879
      3874      3875      3877      3889      3875      3874      3872      3880
      3875      3877      3889      3890      3875      3877      3889      3891
      3875      3877      3889      3892      3876      3875      3877      3878
      3876      3875      3877      3879      3876      3875      3877      3889
      3877      3889      3892      3893      3877      3889      3892      3894
      3877      3889      3892      3895      3878      3877      3889      3890
      3878      3877      3889      3891      3878      3877      3889      3892
      3879      3877      3889      3890      3879      3877      3889      3891
      3879      3877      3889      3892      3880      3883      3884      3885
      3880      3883      3884      3886      3881      3880      3883      3884
      3882      3880      3883      3884      3883      3884      3886      3887
      3883      3884      3886      3888      3883      3884      3886      3936
      3884      3886      3936      3937      3884      3886      3936      3938
      3884      3886      3936      3939      3885      3884      3886      3887
      3885      3884      3886      3888      3885      3884      3886      3936
      3886      3936      3939      3940      3886      3936      3939      3941
      3886      3936      3939      3942      3887      3886      3936      3937
      3887      3886      3936      3938      3887      3886      3936      3939
      3888      3886      3936      3937      3888      3886      3936      3938
      3888      3886      3936      3939      3889      3892      3895      3896
      3889      3892      3895      3897      3889      3892      3895      3898
      3890      3889      3892      3893      3890      3889      3892      3894
      3890      3889      3892      3895      3891      3889      3892      3893
      3891      3889      3892      3894      3891      3889      3892      3895
      3892      3895      3898      3899      3892      3895      3898      3900
      3892      3895      3898      3901      3893      3892      3895      3896
      3893      3892      3895      3897      3893      3892      3895      3898
      3894      3892      3895      3896      3894      3892      3895      3897
      3894      3892      3895      3898      3895      3898      3901      3902
      3895      3898      3901      3903      3895      3898      3901      3904
      3896      3895      3898      3899      3896      3895      3898      3900
      3896      3895      3898      3901      3897      3895      3898      3899
      3897      3895      3898      3900      3897      3895      3898      3901
      3898      3901      3904      3905      3898      3901      3904      3906
      3898      3901      3904      3907      3899      3898      3901      3902
      3899      3898      3901      3903      3899      3898      3901      3904
      3900      3898      3901      3902      3900      3898      3901      3903
      3900      3898      3901      3904      3901      3904      3907      3908
      3901      3904      3907      3909      3902      3901      3904      3905
      3902      3901      3904      3906      3902      3901      3904      3907
      3903      3901      3904      3905      3903      3901      3904      3906
      3903      3901      3904      3907      3904      3907      3909      3910
      3904      3907      3909      3911      3905      3904      3907      3908
      3905      3904      3907      3909      3906      3904      3907      3908
      3906      3904      3907      3909      3907      3909      3911      3912
      3907      3909      3911      3913      3907      3909      3911      3914
      3908      3907      3909      3910      3908      3907      3909      3911
      3909      3911      3914      3915      3909      3911      3914      3916
      3909      3911      3914      3917      3910      3909      3911      3912
      3910      3909      3911      3913      3910      3909      3911      3914
      3911      3914      3917      3918      3911      3914      3917      3919
      3911      3914      3917      3920      3912      3911      3914      3915
      3912      3911      3914      3916      3912      3911      3914      3917
      3913      3911      3914      3915      3913      3911      3914      3916
      3913      3911      3914      3917      3914      3917      3920      3921
      3914      3917      3920      3922      3914      3917      3920      3923
      3915      3914      3917      3918      3915      3914      3917      3919
      3915      3914      3917      3920      3916      3914      3917      3918
      3916      3914      3917      3919      3916      3914      3917      3920
      3917      3920      3923      3924      3917      3920      3923      3925
      3917      3920      3923      3926      3918      3917      3920      3921
      3918      3917      3920      3922      3918      3917      3920      3923
      3919      3917      3920      3921      3919      3917      3920      3922
      3919      3917      3920      3923      3920      3923      3926      3927
      3920      3923      3926      3928      3920      3923      3926      3929
      3921      3920      3923      3924      3921      3920      3923      3925
      3921      3920      3923      3926      3922      3920      3923      3924
      3922      3920      3923      3925      3922      3920      3923      3926
      3923      3926      3929      3930      3923      3926      3929      3931
      3923      3926      3929      3932      3924      3923      3926      3927
      3924      3923      3926      3928      3924      3923      3926      3929
      3925      3923      3926      3927      3925      3923      3926      3928
      3925      3923      3926      3929      3926      3929      3932      3933
      3926      3929      3932      3934      3926      3929      3932      3935
      3927      3926      3929      3930      3927      3926      3929      3931
      3927      3926      3929      3932      3928      3926      3929      3930
      3928      3926      3929      3931      3928      3926      3929      3932
      3930      3929      3932      3933      3930      3929      3932      3934
      3930      3929      3932      3935      3931      3929      3932      3933
      3931      3929      3932      3934      3931      3929      3932      3935
      3936      3939      3942      3943      3936      3939      3942      3944
      3936      3939      3942      3945      3937      3936      3939      3940
      3937      3936      3939      3941      3937      3936      3939      3942
      3938      3936      3939      3940      3938      3936      3939      3941
      3938      3936      3939      3942      3939      3942      3945      3946
      3939      3942      3945      3947      3939      3942      3945      3948
      3940      3939      3942      3943      3940      3939      3942      3944
      3940      3939      3942      3945      3941      3939      3942      3943
      3941      3939      3942      3944      3941      3939      3942      3945
      3942      3945      3948      3949      3942      3945      3948      3950
      3942      3945      3948      3951      3943      3942      3945      3946
      3943      3942      3945      3947      3943      3942      3945      3948
      3944      3942      3945      3946      3944      3942      3945      3947
      3944      3942      3945      3948      3945      3948      3951      3952
      3945      3948      3951      3953      3945      3948      3951      3954
      3946      3945      3948      3949      3946      3945      3948      3950
      3946      3945      3948      3951      3947      3945      3948      3949
      3947      3945      3948      3950      3947      3945      3948      3951
      3948      3951      3954      3955      3948      3951      3954      3956
      3948      3951      3954      3957      3949      3948      3951      3952
      3949      3948      3951      3953      3949      3948      3951      3954
      3950      3948      3951      3952      3950      3948      3951      3953
      3950      3948      3951      3954      3951      3954      3957      3958
      3951      3954      3957      3959      3951      3954      3957      3960
      3952      3951      3954      3955      3952      3951      3954      3956
      3952      3951      3954      3957      3953      3951      3954      3955
      3953      3951      3954      3956      3953      3951      3954      3957
      3954      3957      3960      3961      3954      3957      3960      3962
      3954      3957      3960      3963      3955      3954      3957      3958
      3955      3954      3957      3959      3955      3954      3957      3960
      3956      3954      3957      3958      3956      3954      3957      3959
      3956      3954      3957      3960      3957      3960      3963      3964
      3957      3960      3963      3965      3957      3960      3963      3966
      3958      3957      3960      3961      3958      3957      3960      3962
      3958      3957      3960      3963      3959      3957      3960      3961
      3959      3957      3960      3962      3959      3957      3960      3963
      3960      3963      3966      3967      3960      3963      3966      3968
      3960      3963      3966      3969      3961      3960      3963      3964
      3961      3960      3963      3965      3961      3960      3963      3966
      3962      3960      3963      3964      3962      3960      3963      3965
      3962      3960      3963      3966      3963      3966      3969      3970
      3963      3966      3969      3971      3963      3966      3969      3972
      3964      3963      3966      3967      3964      3963      3966      3968
      3964      3963      3966      3969      3965      3963      3966      3967
      3965      3963      3966      3968      3965      3963      3966      3969
      3966      3969      3972      3973      3966      3969      3972      3974
      3966      3969      3972      3975      3967      3966      3969      3970
      3967      3966      3969      3971      3967      3966      3969      3972
      3968      3966      3969      3970      3968      3966      3969      3971
      3968      3966      3969      3972      3969      3972      3975      3976
      3969      3972      3975      3977      3969      3972      3975      3978
      3970      3969      3972      3973      3970      3969      3972      3974
      3970      3969      3972      3975      3971      3969      3972      3973
      3971      3969      3972      3974      3971      3969      3972      3975
      3973      3972      3975      3976      3973      3972      3975      3977
      3973      3972      3975      3978      3974      3972      3975      3976
      3974      3972      3975      3977      3974      3972      3975      3978
      3979      3983      3985      3986      3979      3983      3985      3987
      3979      3983      3988      3989      3979      3983      3988      3990
      3979      3983      3988      3994      3980      3979      3983      3984
      3980      3979      3983      3985      3980      3979      3983      3988
      3981      3979      3983      3984      3981      3979      3983      3985
      3981      3979      3983      3988      3982      3979      3983      3984
      3982      3979      3983      3985      3982      3979      3983      3988
      3983      3988      3994      3991      3984      3983      3985      3986
      3984      3983      3985      3987      3984      3983      3988      3989
      3984      3983      3988      3990      3984      3983      3988      3994
      3985      3983      3988      3989      3985      3983      3988      3990
      3985      3983      3988      3994      3986      3985      3983      3988
      3987      3985      3983      3988      3988      3994      3991      3992
      3988      3994      3991      3993      3988      3994      3991      3995
      3989      3988      3994      3991      3990      3988      3994      3991
      3991      3995      3996      3997      3991      3995      3996      3998
      3991      3995      3996      3999      3992      3991      3995      3996
      3993      3991      3995      3996      3994      3991      3995      3996
      3995      3996      3999      4000      3995      3996      3999      4001
      3995      3996      3999      4007      3996      3999      4001      4002
      3996      3999      4007      4008      3996      3999      4007      4009
      3996      3999      4007      4010      3997      3996      3999      4000
      3997      3996      3999      4001      3997      3996      3999      4007
      3998      3996      3999      4000      3998      3996      3999      4001
      3998      3996      3999      4007      3999      4001      4002      4003
      3999      4001      4002      4004      3999      4007      4010      4011
      4000      3999      4001      4002      4000      3999      4007      4008
      4000      3999      4007      4009      4000      3999      4007      4010
      4001      3999      4007      4008      4001      3999      4007      4009
      4001      3999      4007      4010      4001      4002      4004      4005
      4001      4002      4004      4006      4001      4002      4004      4016
      4002      4001      3999      4007      4002      4004      4016      4017
      4002      4004      4016      4018      4002      4004      4016      4019
      4003      4002      4004      4005      4003      4002      4004      4006
      4003      4002      4004      4016      4004      4016      4019      4020
      4004      4016      4019      4021      4004      4016      4019      4022
      4005      4004      4016      4017      4005      4004      4016      4018
      4005      4004      4016      4019      4006      4004      4016      4017
      4006      4004      4016      4018      4006      4004      4016      4019
      4007      4010      4011      4012      4007      4010      4011      4013
      4008      4007      4010      4011      4009      4007      4010      4011
      4010      4011      4013      4014      4010      4011      4013      4015
      4010      4011      4013      4063      4011      4013      4063      4064
      4011      4013      4063      4065      4011      4013      4063      4066
      4012      4011      4013      4014      4012      4011      4013      4015
      4012      4011      4013      4063      4013      4063      4066      4067
      4013      4063      4066      4068      4013      4063      4066      4069
      4014      4013      4063      4064      4014      4013      4063      4065
      4014      4013      4063      4066      4015      4013      4063      4064
      4015      4013      4063      4065      4015      4013      4063      4066
      4016      4019      4022      4023      4016      4019      4022      4024
      4016      4019      4022      4025      4017      4016      4019      4020
      4017      4016      4019      4021      4017      4016      4019      4022
      4018      4016      4019      4020      4018      4016      4019      4021
      4018      4016      4019      4022      4019      4022      4025      4026
      4019      4022      4025      4027      4019      4022      4025      4028
      4020      4019      4022      4023      4020      4019      4022      4024
      4020      4019      4022      4025      4021      4019      4022      4023
      4021      4019      4022      4024      4021      4019      4022      4025
      4022      4025      4028      4029      4022      4025      4028      4030
      4022      4025      4028      4031      4023      4022      4025      4026
      4023      4022      4025      4027      4023      4022      4025      4028
      4024      4022      4025      4026      4024      4022      4025      4027
      4024      4022      4025      4028      4025      4028      4031      4032
      4025      4028      4031      4033      4025      4028      4031      4034
      4026      4025      4028      4029      4026      4025      4028      4030
      4026      4025      4028      4031      4027      4025      4028      4029
      4027      4025      4028      4030      4027      4025      4028      4031
      4028      4031      4034      4035      4028      4031      4034      4036
      4029      4028      4031      4032      4029      4028      4031      4033
      4029      4028      4031      4034      4030      4028      4031      4032
      4030      4028      4031      4033      4030      4028      4031      4034
      4031      4034      4036      4037      4031      4034      4036      4038
      4032      4031      4034      4035      4032      4031      4034      4036
      4033      4031      4034      4035      4033      4031      4034      4036
      4034      4036      4038      4039      4034      4036      4038      4040
      4034      4036      4038      4041      4035      4034      4036      4037
      4035      4034      4036      4038      4036      4038      4041      4042
      4036      4038      4041      4043      4036      4038      4041      4044
      4037      4036      4038      4039      4037      4036      4038      4040
      4037      4036      4038      4041      4038      4041      4044      4045
      4038      4041      4044      4046      4038      4041      4044      4047
      4039      4038      4041      4042      4039      4038      4041      4043
      4039      4038      4041      4044      4040      4038      4041      4042
      4040      4038      4041      4043      4040      4038      4041      4044
      4041      4044      4047      4048      4041      4044      4047      4049
      4041      4044      4047      4050      4042      4041      4044      4045
      4042      4041      4044      4046      4042      4041      4044      4047
      4043      4041      4044      4045      4043      4041      4044      4046
      4043      4041      4044      4047      4044      4047      4050      4051
      4044      4047      4050      4052      4044      4047      4050      4053
      4045      4044      4047      4048      4045      4044      4047      4049
      4045      4044      4047      4050      4046      4044      4047      4048
      4046      4044      4047      4049      4046      4044      4047      4050
      4047      4050      4053      4054      4047      4050      4053      4055
      4047      4050      4053      4056      4048      4047      4050      4051
      4048      4047      4050      4052      4048      4047      4050      4053
      4049      4047      4050      4051      4049      4047      4050      4052
      4049      4047      4050      4053      4050      4053      4056      4057
      4050      4053      4056      4058      4050      4053      4056      4059
      4051      4050      4053      4054      4051      4050      4053      4055
      4051      4050      4053      4056      4052      4050      4053      4054
      4052      4050      4053      4055      4052      4050      4053      4056
      4053      4056      4059      4060      4053      4056      4059      4061
      4053      4056      4059      4062      4054      4053      4056      4057
      4054      4053      4056      4058      4054      4053      4056      4059
      4055      4053      4056      4057      4055      4053      4056      4058
      4055      4053      4056      4059      4057      4056      4059      4060
      4057      4056      4059      4061      4057      4056      4059      4062
      4058      4056      4059      4060      4058      4056      4059      4061
      4058      4056      4059      4062      4063      4066      4069      4070
      4063      4066      4069      4071      4063      4066      4069      4072
      4064      4063      4066      4067      4064      4063      4066      4068
      4064      4063      4066      4069      4065      4063      4066      4067
      4065      4063      4066      4068      4065      4063      4066      4069
      4066      4069      4072      4073      4066      4069      4072      4074
      4066      4069      4072      4075      4067      4066      4069      4070
      4067      4066      4069      4071      4067      4066      4069      4072
      4068      4066      4069      4070      4068      4066      4069      4071
      4068      4066      4069      4072      4069      4072      4075      4076
      4069      4072      4075      4077      4069      4072      4075      4078
      4070      4069      4072      4073      4070      4069      4072      4074
      4070      4069      4072      4075      4071      4069      4072      4073
      4071      4069      4072      4074      4071      4069      4072      4075
      4072      4075      4078      4079      4072      4075      4078      4080
      4072      4075      4078      4081      4073      4072      4075      4076
      4073      4072      4075      4077      4073      4072      4075      4078
      4074      4072      4075      4076      4074      4072      4075      4077
      4074      4072      4075      4078      4075      4078      4081      4082
      4075      4078      4081      4083      4075      4078      4081      4084
      4076      4075      4078      4079      4076      4075      4078      4080
      4076      4075      4078      4081      4077      4075      4078      4079
      4077      4075      4078      4080      4077      4075      4078      4081
      4078      4081      4084      4085      4078      4081      4084      4086
      4078      4081      4084      4087      4079      4078      4081      4082
      4079      4078      4081      4083      4079      4078      4081      4084
      4080      4078      4081      4082      4080      4078      4081      4083
      4080      4078      4081      4084      4081      4084      4087      4088
      4081      4084      4087      4089      4081      4084      4087      4090
      4082      4081      4084      4085      4082      4081      4084      4086
      4082      4081      4084      4087      4083      4081      4084      4085
      4083      4081      4084      4086      4083      4081      4084      4087
      4084      4087      4090      4091      4084      4087      4090      4092
      4084      4087      4090      4093      4085      4084      4087      4088
      4085      4084      4087      4089      4085      4084      4087      4090
      4086      4084      4087      4088      4086      4084      4087      4089
      4086      4084      4087      4090      4087      4090      4093      4094
      4087      4090      4093      4095      4087      4090      4093      4096
      4088      4087      4090      4091      4088      4087      4090      4092
      4088      4087      4090      4093      4089      4087      4090      4091
      4089      4087      4090      4092      4089      4087      4090      4093
      4090      4093      4096      4097      4090      4093      4096      4098
      4090      4093      4096      4099      4091      4090      4093      4094
      4091      4090      4093      4095      4091      4090      4093      4096
      4092      4090      4093      4094      4092      4090      4093      4095
      4092      4090      4093      4096      4093      4096      4099      4100
      4093      4096      4099      4101      4093      4096      4099      4102
      4094      4093      4096      4097      4094      4093      4096      4098
      4094      4093      4096      4099      4095      4093      4096      4097
      4095      4093      4096      4098      4095      4093      4096      4099
      4096      4099      4102      4103      4096      4099      4102      4104
      4096      4099      4102      4105      4097      4096      4099      4100
      4097      4096      4099      4101      4097      4096      4099      4102
      4098      4096      4099      4100      4098      4096      4099      4101
      4098      4096      4099      4102      4100      4099      4102      4103
      4100      4099      4102      4104      4100      4099      4102      4105
      4101      4099      4102      4103      4101      4099      4102      4104
      4101      4099      4102      4105      4106      4107      4122      4123
      4106      4107      4122      4124      4106      4107      4122      4128
      4107      4106      4110      4111      4107      4106      4110      4112
      4107      4106      4110      4113      4107      4106      4114      4115
      4107      4106      4114      4116      4107      4106      4114      4117
      4107      4106      4118      4119      4107      4106      4118      4120
      4107      4106      4118      4121      4107      4122      4128      4125
      4108      4107      4106      4110      4108      4107      4106      4114
      4108      4107      4106      4118      4108      4107      4122      4123
      4108      4107      4122      4124      4108      4107      4122      4128
      4109      4107      4106      4110      4109      4107      4106      4114
      4109      4107      4106      4118      4109      4107      4122      4123
      4109      4107      4122      4124      4109      4107      4122      4128
      4110      4106      4107      4122      4110      4106      4114      4115
      4110      4106      4114      4116      4110      4106      4114      4117
      4110      4106      4118      4119      4110      4106      4118      4120
      4110      4106      4118      4121      4111      4110      4106      4114
      4111      4110      4106      4118      4112      4110      4106      4114
      4112      4110      4106      4118      4113      4110      4106      4114
      4113      4110      4106      4118      4114      4106      4107      4122
      4114      4106      4118      4119      4114      4106      4118      4120
      4114      4106      4118      4121      4115      4114      4106      4118
      4116      4114      4106      4118      4117      4114      4106      4118
      4118      4106      4107      4122      4122      4128      4125      4126
      4122      4128      4125      4127      4122      4128      4125      4129
      4123      4122      4128      4125      4124      4122      4128      4125
      4125      4129      4130      4131      4125      4129      4130      4132
      4125      4129      4130      4133      4126      4125      4129      4130
      4127      4125      4129      4130      4128      4125      4129      4130
      4129      4130      4133      4134      4129      4130      4133      4135
      4129      4130      4133      4141      4130      4133      4135      4136
      4130      4133      4141      4142      4130      4133      4141      4143
      4130      4133      4141      4144      4131      4130      4133      4134
      4131      4130      4133      4135      4131      4130      4133      4141
      4132      4130      4133      4134      4132      4130      4133      4135
      4132      4130      4133      4141      4133      4135      4136      4137
      4133      4135      4136      4138      4133      4141      4144      4145
      4134      4133      4135      4136      4134      4133      4141      4142
      4134      4133      4141      4143      4134      4133      4141      4144
      4135      4133      4141      4142      4135      4133      4141      4143
      4135      4133      4141      4144      4135      4136      4138      4139
      4135      4136      4138      4140      4135      4136      4138      4150
      4136      4135      4133      4141      4136      4138      4150      4151
      4136      4138      4150      4152      4136      4138      4150      4153
      4137      4136      4138      4139      4137      4136      4138      4140
      4137      4136      4138      4150      4138      4150      4153      4154
      4138      4150      4153      4155      4138      4150      4153      4156
      4139      4138      4150      4151      4139      4138      4150      4152
      4139      4138      4150      4153      4140      4138      4150      4151
      4140      4138      4150      4152      4140      4138      4150      4153
      4141      4144      4145      4146      4141      4144      4145      4147
      4142      4141      4144      4145      4143      4141      4144      4145
      4144      4145      4147      4148      4144      4145      4147      4149
      4144      4145      4147      4197      4145      4147      4197      4198
      4145      4147      4197      4199      4145      4147      4197      4200
      4146      4145      4147      4148      4146      4145      4147      4149
      4146      4145      4147      4197      4147      4197      4200      4201
      4147      4197      4200      4202      4147      4197      4200      4203
      4148      4147      4197      4198      4148      4147      4197      4199
      4148      4147      4197      4200      4149      4147      4197      4198
      4149      4147      4197      4199      4149      4147      4197      4200
      4150      4153      4156      4157      4150      4153      4156      4158
      4150      4153      4156      4159      4151      4150      4153      4154
      4151      4150      4153      4155      4151      4150      4153      4156
      4152      4150      4153      4154      4152      4150      4153      4155
      4152      4150      4153      4156      4153      4156      4159      4160
      4153      4156      4159      4161      4153      4156      4159      4162
      4154      4153      4156      4157      4154      4153      4156      4158
      4154      4153      4156      4159      4155      4153      4156      4157
      4155      4153      4156      4158      4155      4153      4156      4159
      4156      4159      4162      4163      4156      4159      4162      4164
      4156      4159      4162      4165      4157      4156      4159      4160
      4157      4156      4159      4161      4157      4156      4159      4162
      4158      4156      4159      4160      4158      4156      4159      4161
      4158      4156      4159      4162      4159      4162      4165      4166
      4159      4162      4165      4167      4159      4162      4165      4168
      4160      4159      4162      4163      4160      4159      4162      4164
      4160      4159      4162      4165      4161      4159      4162      4163
      4161      4159      4162      4164      4161      4159      4162      4165
      4162      4165      4168      4169      4162      4165      4168      4170
      4163      4162      4165      4166      4163      4162      4165      4167
      4163      4162      4165      4168      4164      4162      4165      4166
      4164      4162      4165      4167      4164      4162      4165      4168
      4165      4168      4170      4171      4165      4168      4170      4172
      4166      4165      4168      4169      4166      4165      4168      4170
      4167      4165      4168      4169      4167      4165      4168      4170
      4168      4170      4172      4173      4168      4170      4172      4174
      4168      4170      4172      4175      4169      4168      4170      4171
      4169      4168      4170      4172      4170      4172      4175      4176
      4170      4172      4175      4177      4170      4172      4175      4178
      4171      4170      4172      4173      4171      4170      4172      4174
      4171      4170      4172      4175      4172      4175      4178      4179
      4172      4175      4178      4180      4172      4175      4178      4181
      4173      4172      4175      4176      4173      4172      4175      4177
      4173      4172      4175      4178      4174      4172      4175      4176
      4174      4172      4175      4177      4174      4172      4175      4178
      4175      4178      4181      4182      4175      4178      4181      4183
      4175      4178      4181      4184      4176      4175      4178      4179
      4176      4175      4178      4180      4176      4175      4178      4181
      4177      4175      4178      4179      4177      4175      4178      4180
      4177      4175      4178      4181      4178      4181      4184      4185
      4178      4181      4184      4186      4178      4181      4184      4187
      4179      4178      4181      4182      4179      4178      4181      4183
      4179      4178      4181      4184      4180      4178      4181      4182
      4180      4178      4181      4183      4180      4178      4181      4184
      4181      4184      4187      4188      4181      4184      4187      4189
      4181      4184      4187      4190      4182      4181      4184      4185
      4182      4181      4184      4186      4182      4181      4184      4187
      4183      4181      4184      4185      4183      4181      4184      4186
      4183      4181      4184      4187      4184      4187      4190      4191
      4184      4187      4190      4192      4184      4187      4190      4193
      4185      4184      4187      4188      4185      4184      4187      4189
      4185      4184      4187      4190      4186      4184      4187      4188
      4186      4184      4187      4189      4186      4184      4187      4190
      4187      4190      4193      4194      4187      4190      4193      4195
      4187      4190      4193      4196      4188      4187      4190      4191
      4188      4187      4190      4192      4188      4187      4190      4193
      4189      4187      4190      4191      4189      4187      4190      4192
      4189      4187      4190      4193      4191      4190      4193      4194
      4191      4190      4193      4195      4191      4190      4193      4196
      4192      4190      4193      4194      4192      4190      4193      4195
      4192      4190      4193      4196      4197      4200      4203      4204
      4197      4200      4203      4205      4197      4200      4203      4206
      4198      4197      4200      4201      4198      4197      4200      4202
      4198      4197      4200      4203      4199      4197      4200      4201
      4199      4197      4200      4202      4199      4197      4200      4203
      4200      4203      4206      4207      4200      4203      4206      4208
      4200      4203      4206      4209      4201      4200      4203      4204
      4201      4200      4203      4205      4201      4200      4203      4206
      4202      4200      4203      4204      4202      4200      4203      4205
      4202      4200      4203      4206      4203      4206      4209      4210
      4203      4206      4209      4211      4203      4206      4209      4212
      4204      4203      4206      4207      4204      4203      4206      4208
      4204      4203      4206      4209      4205      4203      4206      4207
      4205      4203      4206      4208      4205      4203      4206      4209
      4206      4209      4212      4213      4206      4209      4212      4214
      4206      4209      4212      4215      4207      4206      4209      4210
      4207      4206      4209      4211      4207      4206      4209      4212
      4208      4206      4209      4210      4208      4206      4209      4211
      4208      4206      4209      4212      4209      4212      4215      4216
      4209      4212      4215      4217      4209      4212      4215      4218
      4210      4209      4212      4213      4210      4209      4212      4214
      4210      4209      4212      4215      4211      4209      4212      4213
      4211      4209      4212      4214      4211      4209      4212      4215
      4212      4215      4218      4219      4212      4215      4218      4220
      4212      4215      4218      4221      4213      4212      4215      4216
      4213      4212      4215      4217      4213      4212      4215      4218
      4214      4212      4215      4216      4214      4212      4215      4217
      4214      4212      4215      4218      4215      4218      4221      4222
      4215      4218      4221      4223      4215      4218      4221      4224
      4216      4215      4218      4219      4216      4215      4218      4220
      4216      4215      4218      4221      4217      4215      4218      4219
      4217      4215      4218      4220      4217      4215      4218      4221
      4218      4221      4224      4225      4218      4221      4224      4226
      4218      4221      4224      4227      4219      4218      4221      4222
      4219      4218      4221      4223      4219      4218      4221      4224
      4220      4218      4221      4222      4220      4218      4221      4223
      4220      4218      4221      4224      4221      4224      4227      4228
      4221      4224      4227      4229      4221      4224      4227      4230
      4222      4221      4224      4225      4222      4221      4224      4226
      4222      4221      4224      4227      4223      4221      4224      4225
      4223      4221      4224      4226      4223      4221      4224      4227
      4224      4227      4230      4231      4224      4227      4230      4232
      4224      4227      4230      4233      4225      4224      4227      4228
      4225      4224      4227      4229      4225      4224      4227      4230
      4226      4224      4227      4228      4226      4224      4227      4229
      4226      4224      4227      4230      4227      4230      4233      4234
      4227      4230      4233      4235      4227      4230      4233      4236
      4228      4227      4230      4231      4228      4227      4230      4232
      4228      4227      4230      4233      4229      4227      4230      4231
      4229      4227      4230      4232      4229      4227      4230      4233
      4230      4233      4236      4237      4230      4233      4236      4238
      4230      4233      4236      4239      4231      4230      4233      4234
      4231      4230      4233      4235      4231      4230      4233      4236
      4232      4230      4233      4234      4232      4230      4233      4235
      4232      4230      4233      4236      4234      4233      4236      4237
      4234      4233      4236      4238      4234      4233      4236      4239
      4235      4233      4236      4237      4235      4233      4236      4238
      4235      4233      4236      4239      4240      4241      4256      4257
      4240      4241      4256      4258      4240      4241      4256      4262
      4241      4240      4244      4245      4241      4240      4244      4246
      4241      4240      4244      4247      4241      4240      4248      4249
      4241      4240      4248      4250      4241      4240      4248      4251
      4241      4240      4252      4253      4241      4240      4252      4254
      4241      4240      4252      4255      4241      4256      4262      4259
      4242      4241      4240      4244      4242      4241      4240      4248
      4242      4241      4240      4252      4242      4241      4256      4257
      4242      4241      4256      4258      4242      4241      4256      4262
      4243      4241      4240      4244      4243      4241      4240      4248
      4243      4241      4240      4252      4243      4241      4256      4257
      4243      4241      4256      4258      4243      4241      4256      4262
      4244      4240      4241      4256      4244      4240      4248      4249
      4244      4240      4248      4250      4244      4240      4248      4251
      4244      4240      4252      4253      4244      4240      4252      4254
      4244      4240      4252      4255      4245      4244      4240      4248
      4245      4244      4240      4252      4246      4244      4240      4248
      4246      4244      4240      4252      4247      4244      4240      4248
      4247      4244      4240      4252      4248      4240      4241      4256
      4248      4240      4252      4253      4248      4240      4252      4254
      4248      4240      4252      4255      4249      4248      4240      4252
      4250      4248      4240      4252      4251      4248      4240      4252
      4252      4240      4241      4256      4256      4262      4259      4260
      4256      4262      4259      4261      4256      4262      4259      4263
      4257      4256      4262      4259      4258      4256      4262      4259
      4259      4263      4264      4265      4259      4263      4264      4266
      4259      4263      4264      4267      4260      4259      4263      4264
      4261      4259      4263      4264      4262      4259      4263      4264
      4263      4264      4267      4268      4263      4264      4267      4269
      4263      4264      4267      4275      4264      4267      4269      4270
      4264      4267      4275      4276      4264      4267      4275      4277
      4264      4267      4275      4278      4265      4264      4267      4268
      4265      4264      4267      4269      4265      4264      4267      4275
      4266      4264      4267      4268      4266      4264      4267      4269
      4266      4264      4267      4275      4267      4269      4270      4271
      4267      4269      4270      4272      4267      4275      4278      4279
      4268      4267      4269      4270      4268      4267      4275      4276
      4268      4267      4275      4277      4268      4267      4275      4278
      4269      4267      4275      4276      4269      4267      4275      4277
      4269      4267      4275      4278      4269      4270      4272      4273
      4269      4270      4272      4274      4269      4270      4272      4284
      4270      4269      4267      4275      4270      4272      4284      4285
      4270      4272      4284      4286      4270      4272      4284      4287
      4271      4270      4272      4273      4271      4270      4272      4274
      4271      4270      4272      4284      4272      4284      4287      4288
      4272      4284      4287      4289      4272      4284      4287      4290
      4273      4272      4284      4285      4273      4272      4284      4286
      4273      4272      4284      4287      4274      4272      4284      4285
      4274      4272      4284      4286      4274      4272      4284      4287
      4275      4278      4279      4280      4275      4278      4279      4281
      4276      4275      4278      4279      4277      4275      4278      4279
      4278      4279      4281      4282      4278      4279      4281      4283
      4278      4279      4281      4331      4279      4281      4331      4332
      4279      4281      4331      4333      4279      4281      4331      4334
      4280      4279      4281      4282      4280      4279      4281      4283
      4280      4279      4281      4331      4281      4331      4334      4335
      4281      4331      4334      4336      4281      4331      4334      4337
      4282      4281      4331      4332      4282      4281      4331      4333
      4282      4281      4331      4334      4283      4281      4331      4332
      4283      4281      4331      4333      4283      4281      4331      4334
      4284      4287      4290      4291      4284      4287      4290      4292
      4284      4287      4290      4293      4285      4284      4287      4288
      4285      4284      4287      4289      4285      4284      4287      4290
      4286      4284      4287      4288      4286      4284      4287      4289
      4286      4284      4287      4290      4287      4290      4293      4294
      4287      4290      4293      4295      4287      4290      4293      4296
      4288      4287      4290      4291      4288      4287      4290      4292
      4288      4287      4290      4293      4289      4287      4290      4291
      4289      4287      4290      4292      4289      4287      4290      4293
      4290      4293      4296      4297      4290      4293      4296      4298
      4290      4293      4296      4299      4291      4290      4293      4294
      4291      4290      4293      4295      4291      4290      4293      4296
      4292      4290      4293      4294      4292      4290      4293      4295
      4292      4290      4293      4296      4293      4296      4299      4300
      4293      4296      4299      4301      4293      4296      4299      4302
      4294      4293      4296      4297      4294      4293      4296      4298
      4294      4293      4296      4299      4295      4293      4296      4297
      4295      4293      4296      4298      4295      4293      4296      4299
      4296      4299      4302      4303      4296      4299      4302      4304
      4297      4296      4299      4300      4297      4296      4299      4301
      4297      4296      4299      4302      4298      4296      4299      4300
      4298      4296      4299      4301      4298      4296      4299      4302
      4299      4302      4304      4305      4299      4302      4304      4306
      4300      4299      4302      4303      4300      4299      4302      4304
      4301      4299      4302      4303      4301      4299      4302      4304
      4302      4304      4306      4307      4302      4304      4306      4308
      4302      4304      4306      4309      4303      4302      4304      4305
      4303      4302      4304      4306      4304      4306      4309      4310
      4304      4306      4309      4311      4304      4306      4309      4312
      4305      4304      4306      4307      4305      4304      4306      4308
      4305      4304      4306      4309      4306      4309      4312      4313
      4306      4309      4312      4314      4306      4309      4312      4315
      4307      4306      4309      4310      4307      4306      4309      4311
      4307      4306      4309      4312      4308      4306      4309      4310
      4308      4306      4309      4311      4308      4306      4309      4312
      4309      4312      4315      4316      4309      4312      4315      4317
      4309      4312      4315      4318      4310      4309      4312      4313
      4310      4309      4312      4314      4310      4309      4312      4315
      4311      4309      4312      4313      4311      4309      4312      4314
      4311      4309      4312      4315      4312      4315      4318      4319
      4312      4315      4318      4320      4312      4315      4318      4321
      4313      4312      4315      4316      4313      4312      4315      4317
      4313      4312      4315      4318      4314      4312      4315      4316
      4314      4312      4315      4317      4314      4312      4315      4318
      4315      4318      4321      4322      4315      4318      4321      4323
      4315      4318      4321      4324      4316      4315      4318      4319
      4316      4315      4318      4320      4316      4315      4318      4321
      4317      4315      4318      4319      4317      4315      4318      4320
      4317      4315      4318      4321      4318      4321      4324      4325
      4318      4321      4324      4326      4318      4321      4324      4327
      4319      4318      4321      4322      4319      4318      4321      4323
      4319      4318      4321      4324      4320      4318      4321      4322
      4320      4318      4321      4323      4320      4318      4321      4324
      4321      4324      4327      4328      4321      4324      4327      4329
      4321      4324      4327      4330      4322      4321      4324      4325
      4322      4321      4324      4326      4322      4321      4324      4327
      4323      4321      4324      4325      4323      4321      4324      4326
      4323      4321      4324      4327      4325      4324      4327      4328
      4325      4324      4327      4329      4325      4324      4327      4330
      4326      4324      4327      4328      4326      4324      4327      4329
      4326      4324      4327      4330      4331      4334      4337      4338
      4331      4334      4337      4339      4331      4334      4337      4340
      4332      4331      4334      4335      4332      4331      4334      4336
      4332      4331      4334      4337      4333      4331      4334      4335
      4333      4331      4334      4336      4333      4331      4334      4337
      4334      4337      4340      4341      4334      4337      4340      4342
      4334      4337      4340      4343      4335      4334      4337      4338
      4335      4334      4337      4339      4335      4334      4337      4340
      4336      4334      4337      4338      4336      4334      4337      4339
      4336      4334      4337      4340      4337      4340      4343      4344
      4337      4340      4343      4345      4337      4340      4343      4346
      4338      4337      4340      4341      4338      4337      4340      4342
      4338      4337      4340      4343      4339      4337      4340      4341
      4339      4337      4340      4342      4339      4337      4340      4343
      4340      4343      4346      4347      4340      4343      4346      4348
      4340      4343      4346      4349      4341      4340      4343      4344
      4341      4340      4343      4345      4341      4340      4343      4346
      4342      4340      4343      4344      4342      4340      4343      4345
      4342      4340      4343      4346      4343      4346      4349      4350
      4343      4346      4349      4351      4343      4346      4349      4352
      4344      4343      4346      4347      4344      4343      4346      4348
      4344      4343      4346      4349      4345      4343      4346      4347
      4345      4343      4346      4348      4345      4343      4346      4349
      4346      4349      4352      4353      4346      4349      4352      4354
      4346      4349      4352      4355      4347      4346      4349      4350
      4347      4346      4349      4351      4347      4346      4349      4352
      4348      4346      4349      4350      4348      4346      4349      4351
      4348      4346      4349      4352      4349      4352      4355      4356
      4349      4352      4355      4357      4349      4352      4355      4358
      4350      4349      4352      4353      4350      4349      4352      4354
      4350      4349      4352      4355      4351      4349      4352      4353
      4351      4349      4352      4354      4351      4349      4352      4355
      4352      4355      4358      4359      4352      4355      4358      4360
      4352      4355      4358      4361      4353      4352      4355      4356
      4353      4352      4355      4357      4353      4352      4355      4358
      4354      4352      4355      4356      4354      4352      4355      4357
      4354      4352      4355      4358      4355      4358      4361      4362
      4355      4358      4361      4363      4355      4358      4361      4364
      4356      4355      4358      4359      4356      4355      4358      4360
      4356      4355      4358      4361      4357      4355      4358      4359
      4357      4355      4358      4360      4357      4355      4358      4361
      4358      4361      4364      4365      4358      4361      4364      4366
      4358      4361      4364      4367      4359      4358      4361      4362
      4359      4358      4361      4363      4359      4358      4361      4364
      4360      4358      4361      4362      4360      4358      4361      4363
      4360      4358      4361      4364      4361      4364      4367      4368
      4361      4364      4367      4369      4361      4364      4367      4370
      4362      4361      4364      4365      4362      4361      4364      4366
      4362      4361      4364      4367      4363      4361      4364      4365
      4363      4361      4364      4366      4363      4361      4364      4367
      4364      4367      4370      4371      4364      4367      4370      4372
      4364      4367      4370      4373      4365      4364      4367      4368
      4365      4364      4367      4369      4365      4364      4367      4370
      4366      4364      4367      4368      4366      4364      4367      4369
      4366      4364      4367      4370      4368      4367      4370      4371
      4368      4367      4370      4372      4368      4367      4370      4373
      4369      4367      4370      4371      4369      4367      4370      4372
      4369      4367      4370      4373      4374      4375      4390      4391
      4374      4375      4390      4392      4374      4375      4390      4396
      4375      4374      4378      4379      4375      4374      4378      4380
      4375      4374      4378      4381      4375      4374      4382      4383
      4375      4374      4382      4384      4375      4374      4382      4385
      4375      4374      4386      4387      4375      4374      4386      4388
      4375      4374      4386      4389      4375      4390      4396      4393
      4376      4375      4374      4378      4376      4375      4374      4382
      4376      4375      4374      4386      4376      4375      4390      4391
      4376      4375      4390      4392      4376      4375      4390      4396
      4377      4375      4374      4378      4377      4375      4374      4382
      4377      4375      4374      4386      4377      4375      4390      4391
      4377      4375      4390      4392      4377      4375      4390      4396
      4378      4374      4375      4390      4378      4374      4382      4383
      4378      4374      4382      4384      4378      4374      4382      4385
      4378      4374      4386      4387      4378      4374      4386      4388
      4378      4374      4386      4389      4379      4378      4374      4382
      4379      4378      4374      4386      4380      4378      4374      4382
      4380      4378      4374      4386      4381      4378      4374      4382
      4381      4378      4374      4386      4382      4374      4375      4390
      4382      4374      4386      4387      4382      4374      4386      4388
      4382      4374      4386      4389      4383      4382      4374      4386
      4384      4382      4374      4386      4385      4382      4374      4386
      4386      4374      4375      4390      4390      4396      4393      4394
      4390      4396      4393      4395      4390      4396      4393      4397
      4391      4390      4396      4393      4392      4390      4396      4393
      4393      4397      4398      4399      4393      4397      4398      4400
      4393      4397      4398      4401      4394      4393      4397      4398
      4395      4393      4397      4398      4396      4393      4397      4398
      4397      4398      4401      4402      4397      4398      4401      4403
      4397      4398      4401      4409      4398      4401      4403      4404
      4398      4401      4409      4410      4398      4401      4409      4411
      4398      4401      4409      4412      4399      4398      4401      4402
      4399      4398      4401      4403      4399      4398      4401      4409
      4400      4398      4401      4402      4400      4398      4401      4403
      4400      4398      4401      4409      4401      4403      4404      4405
      4401      4403      4404      4406      4401      4409      4412      4413
      4402      4401      4403      4404      4402      4401      4409      4410
      4402      4401      4409      4411      4402      4401      4409      4412
      4403      4401      4409      4410      4403      4401      4409      4411
      4403      4401      4409      4412      4403      4404      4406      4407
      4403      4404      4406      4408      4403      4404      4406      4418
      4404      4403      4401      4409      4404      4406      4418      4419
      4404      4406      4418      4420      4404      4406      4418      4421
      4405      4404      4406      4407      4405      4404      4406      4408
      4405      4404      4406      4418      4406      4418      4421      4422
      4406      4418      4421      4423      4406      4418      4421      4424
      4407      4406      4418      4419      4407      4406      4418      4420
      4407      4406      4418      4421      4408      4406      4418      4419
      4408      4406      4418      4420      4408      4406      4418      4421
      4409      4412      4413      4414      4409      4412      4413      4415
      4410      4409      4412      4413      4411      4409      4412      4413
      4412      4413      4415      4416      4412      4413      4415      4417
      4412      4413      4415      4465      4413      4415      4465      4466
      4413      4415      4465      4467      4413      4415      4465      4468
      4414      4413      4415      4416      4414      4413      4415      4417
      4414      4413      4415      4465      4415      4465      4468      4469
      4415      4465      4468      4470      4415      4465      4468      4471
      4416      4415      4465      4466      4416      4415      4465      4467
      4416      4415      4465      4468      4417      4415      4465      4466
      4417      4415      4465      4467      4417      4415      4465      4468
      4418      4421      4424      4425      4418      4421      4424      4426
      4418      4421      4424      4427      4419      4418      4421      4422
      4419      4418      4421      4423      4419      4418      4421      4424
      4420      4418      4421      4422      4420      4418      4421      4423
      4420      4418      4421      4424      4421      4424      4427      4428
      4421      4424      4427      4429      4421      4424      4427      4430
      4422      4421      4424      4425      4422      4421      4424      4426
      4422      4421      4424      4427      4423      4421      4424      4425
      4423      4421      4424      4426      4423      4421      4424      4427
      4424      4427      4430      4431      4424      4427      4430      4432
      4424      4427      4430      4433      4425      4424      4427      4428
      4425      4424      4427      4429      4425      4424      4427      4430
      4426      4424      4427      4428      4426      4424      4427      4429
      4426      4424      4427      4430      4427      4430      4433      4434
      4427      4430      4433      4435      4427      4430      4433      4436
      4428      4427      4430      4431      4428      4427      4430      4432
      4428      4427      4430      4433      4429      4427      4430      4431
      4429      4427      4430      4432      4429      4427      4430      4433
      4430      4433      4436      4437      4430      4433      4436      4438
      4431      4430      4433      4434      4431      4430      4433      4435
      4431      4430      4433      4436      4432      4430      4433      4434
      4432      4430      4433      4435      4432      4430      4433      4436
      4433      4436      4438      4439      4433      4436      4438      4440
      4434      4433      4436      4437      4434      4433      4436      4438
      4435      4433      4436      4437      4435      4433      4436      4438
      4436      4438      4440      4441      4436      4438      4440      4442
      4436      4438      4440      4443      4437      4436      4438      4439
      4437      4436      4438      4440      4438      4440      4443      4444
      4438      4440      4443      4445      4438      4440      4443      4446
      4439      4438      4440      4441      4439      4438      4440      4442
      4439      4438      4440      4443      4440      4443      4446      4447
      4440      4443      4446      4448      4440      4443      4446      4449
      4441      4440      4443      4444      4441      4440      4443      4445
      4441      4440      4443      4446      4442      4440      4443      4444
      4442      4440      4443      4445      4442      4440      4443      4446
      4443      4446      4449      4450      4443      4446      4449      4451
      4443      4446      4449      4452      4444      4443      4446      4447
      4444      4443      4446      4448      4444      4443      4446      4449
      4445      4443      4446      4447      4445      4443      4446      4448
      4445      4443      4446      4449      4446      4449      4452      4453
      4446      4449      4452      4454      4446      4449      4452      4455
      4447      4446      4449      4450      4447      4446      4449      4451
      4447      4446      4449      4452      4448      4446      4449      4450
      4448      4446      4449      4451      4448      4446      4449      4452
      4449      4452      4455      4456      4449      4452      4455      4457
      4449      4452      4455      4458      4450      4449      4452      4453
      4450      4449      4452      4454      4450      4449      4452      4455
      4451      4449      4452      4453      4451      4449      4452      4454
      4451      4449      4452      4455      4452      4455      4458      4459
      4452      4455      4458      4460      4452      4455      4458      4461
      4453      4452      4455      4456      4453      4452      4455      4457
      4453      4452      4455      4458      4454      4452      4455      4456
      4454      4452      4455      4457      4454      4452      4455      4458
      4455      4458      4461      4462      4455      4458      4461      4463
      4455      4458      4461      4464      4456      4455      4458      4459
      4456      4455      4458      4460      4456      4455      4458      4461
      4457      4455      4458      4459      4457      4455      4458      4460
      4457      4455      4458      4461      4459      4458      4461      4462
      4459      4458      4461      4463      4459      4458      4461      4464
      4460      4458      4461      4462      4460      4458      4461      4463
      4460      4458      4461      4464      4465      4468      4471      4472
      4465      4468      4471      4473      4465      4468      4471      4474
      4466      4465      4468      4469      4466      4465      4468      4470
      4466      4465      4468      4471      4467      4465      4468      4469
      4467      4465      4468      4470      4467      4465      4468      4471
      4468      4471      4474      4475      4468      4471      4474      4476
      4468      4471      4474      4477      4469      4468      4471      4472
      4469      4468      4471      4473      4469      4468      4471      4474
      4470      4468      4471      4472      4470      4468      4471      4473
      4470      4468      4471      4474      4471      4474      4477      4478
      4471      4474      4477      4479      4471      4474      4477      4480
      4472      4471      4474      4475      4472      4471      4474      4476
      4472      4471      4474      4477      4473      4471      4474      4475
      4473      4471      4474      4476      4473      4471      4474      4477
      4474      4477      4480      4481      4474      4477      4480      4482
      4474      4477      4480      4483      4475      4474      4477      4478
      4475      4474      4477      4479      4475      4474      4477      4480
      4476      4474      4477      4478      4476      4474      4477      4479
      4476      4474      4477      4480      4477      4480      4483      4484
      4477      4480      4483      4485      4477      4480      4483      4486
      4478      4477      4480      4481      4478      4477      4480      4482
      4478      4477      4480      4483      4479      4477      4480      4481
      4479      4477      4480      4482      4479      4477      4480      4483
      4480      4483      4486      4487      4480      4483      4486      4488
      4480      4483      4486      4489      4481      4480      4483      4484
      4481      4480      4483      4485      4481      4480      4483      4486
      4482      4480      4483      4484      4482      4480      4483      4485
      4482      4480      4483      4486      4483      4486      4489      4490
      4483      4486      4489      4491      4483      4486      4489      4492
      4484      4483      4486      4487      4484      4483      4486      4488
      4484      4483      4486      4489      4485      4483      4486      4487
      4485      4483      4486      4488      4485      4483      4486      4489
      4486      4489      4492      4493      4486      4489      4492      4494
      4486      4489      4492      4495      4487      4486      4489      4490
      4487      4486      4489      4491      4487      4486      4489      4492
      4488      4486      4489      4490      4488      4486      4489      4491
      4488      4486      4489      4492      4489      4492      4495      4496
      4489      4492      4495      4497      4489      4492      4495      4498
      4490      4489      4492      4493      4490      4489      4492      4494
      4490      4489      4492      4495      4491      4489      4492      4493
      4491      4489      4492      4494      4491      4489      4492      4495
      4492      4495      4498      4499      4492      4495      4498      4500
      4492      4495      4498      4501      4493      4492      4495      4496
      4493      4492      4495      4497      4493      4492      4495      4498
      4494      4492      4495      4496      4494      4492      4495      4497
      4494      4492      4495      4498      4495      4498      4501      4502
      4495      4498      4501      4503      4495      4498      4501      4504
      4496      4495      4498      4499      4496      4495      4498      4500
      4496      4495      4498      4501      4497      4495      4498      4499
      4497      4495      4498      4500      4497      4495      4498      4501
      4498      4501      4504      4505      4498      4501      4504      4506
      4498      4501      4504      4507      4499      4498      4501      4502
      4499      4498      4501      4503      4499      4498      4501      4504
      4500      4498      4501      4502      4500      4498      4501      4503
      4500      4498      4501      4504      4502      4501      4504      4505
      4502      4501      4504      4506      4502      4501      4504      4507
      4503      4501      4504      4505      4503      4501      4504      4506
      4503      4501      4504      4507      4508      4512      4514      4515
      4508      4512      4514      4516      4508      4512      4517      4518
      4508      4512      4517      4519      4508      4512      4517      4523
      4509      4508      4512      4513      4509      4508      4512      4514
      4509      4508      4512      4517      4510      4508      4512      4513
      4510      4508      4512      4514      4510      4508      4512      4517
      4511      4508      4512      4513      4511      4508      4512      4514
      4511      4508      4512      4517      4512      4517      4523      4520
      4513      4512      4514      4515      4513      4512      4514      4516
      4513      4512      4517      4518      4513      4512      4517      4519
      4513      4512      4517      4523      4514      4512      4517      4518
      4514      4512      4517      4519      4514      4512      4517      4523
      4515      4514      4512      4517      4516      4514      4512      4517
      4517      4523      4520      4521      4517      4523      4520      4522
      4517      4523      4520      4524      4518      4517      4523      4520
      4519      4517      4523      4520      4520      4524      4525      4526
      4520      4524      4525      4527      4520      4524      4525      4528
      4521      4520      4524      4525      4522      4520      4524      4525
      4523      4520      4524      4525      4524      4525      4528      4529
      4524      4525      4528      4530      4524      4525      4528      4536
      4525      4528      4530      4531      4525      4528      4536      4537
      4525      4528      4536      4538      4525      4528      4536      4539
      4526      4525      4528      4529      4526      4525      4528      4530
      4526      4525      4528      4536      4527      4525      4528      4529
      4527      4525      4528      4530      4527      4525      4528      4536
      4528      4530      4531      4532      4528      4530      4531      4533
      4528      4536      4539      4540      4529      4528      4530      4531
      4529      4528      4536      4537      4529      4528      4536      4538
      4529      4528      4536      4539      4530      4528      4536      4537
      4530      4528      4536      4538      4530      4528      4536      4539
      4530      4531      4533      4534      4530      4531      4533      4535
      4530      4531      4533      4545      4531      4530      4528      4536
      4531      4533      4545      4546      4531      4533      4545      4547
      4531      4533      4545      4548      4532      4531      4533      4534
      4532      4531      4533      4535      4532      4531      4533      4545
      4533      4545      4548      4549      4533      4545      4548      4550
      4533      4545      4548      4551      4534      4533      4545      4546
      4534      4533      4545      4547      4534      4533      4545      4548
      4535      4533      4545      4546      4535      4533      4545      4547
      4535      4533      4545      4548      4536      4539      4540      4541
      4536      4539      4540      4542      4537      4536      4539      4540
      4538      4536      4539      4540      4539      4540      4542      4543
      4539      4540      4542      4544      4539      4540      4542      4592
      4540      4542      4592      4593      4540      4542      4592      4594
      4540      4542      4592      4595      4541      4540      4542      4543
      4541      4540      4542      4544      4541      4540      4542      4592
      4542      4592      4595      4596      4542      4592      4595      4597
      4542      4592      4595      4598      4543      4542      4592      4593
      4543      4542      4592      4594      4543      4542      4592      4595
      4544      4542      4592      4593      4544      4542      4592      4594
      4544      4542      4592      4595      4545      4548      4551      4552
      4545      4548      4551      4553      4545      4548      4551      4554
      4546      4545      4548      4549      4546      4545      4548      4550
      4546      4545      4548      4551      4547      4545      4548      4549
      4547      4545      4548      4550      4547      4545      4548      4551
      4548      4551      4554      4555      4548      4551      4554      4556
      4548      4551      4554      4557      4549      4548      4551      4552
      4549      4548      4551      4553      4549      4548      4551      4554
      4550      4548      4551      4552      4550      4548      4551      4553
      4550      4548      4551      4554      4551      4554      4557      4558
      4551      4554      4557      4559      4551      4554      4557      4560
      4552      4551      4554      4555      4552      4551      4554      4556
      4552      4551      4554      4557      4553      4551      4554      4555
      4553      4551      4554      4556      4553      4551      4554      4557
      4554      4557      4560      4561      4554      4557      4560      4562
      4554      4557      4560      4563      4555      4554      4557      4558
      4555      4554      4557      4559      4555      4554      4557      4560
      4556      4554      4557      4558      4556      4554      4557      4559
      4556      4554      4557      4560      4557      4560      4563      4564
      4557      4560      4563      4565      4558      4557      4560      4561
      4558      4557      4560      4562      4558      4557      4560      4563
      4559      4557      4560      4561      4559      4557      4560      4562
      4559      4557      4560      4563      4560      4563      4565      4566
      4560      4563      4565      4567      4561      4560      4563      4564
      4561      4560      4563      4565      4562      4560      4563      4564
      4562      4560      4563      4565      4563      4565      4567      4568
      4563      4565      4567      4569      4563      4565      4567      4570
      4564      4563      4565      4566      4564      4563      4565      4567
      4565      4567      4570      4571      4565      4567      4570      4572
      4565      4567      4570      4573      4566      4565      4567      4568
      4566      4565      4567      4569      4566      4565      4567      4570
      4567      4570      4573      4574      4567      4570      4573      4575
      4567      4570      4573      4576      4568      4567      4570      4571
      4568      4567      4570      4572      4568      4567      4570      4573
      4569      4567      4570      4571      4569      4567      4570      4572
      4569      4567      4570      4573      4570      4573      4576      4577
      4570      4573      4576      4578      4570      4573      4576      4579
      4571      4570      4573      4574      4571      4570      4573      4575
      4571      4570      4573      4576      4572      4570      4573      4574
      4572      4570      4573      4575      4572      4570      4573      4576
      4573      4576      4579      4580      4573      4576      4579      4581
      4573      4576      4579      4582      4574      4573      4576      4577
      4574      4573      4576      4578      4574      4573      4576      4579
      4575      4573      4576      4577      4575      4573      4576      4578
      4575      4573      4576      4579      4576      4579      4582      4583
      4576      4579      4582      4584      4576      4579      4582      4585
      4577      4576      4579      4580      4577      4576      4579      4581
      4577      4576      4579      4582      4578      4576      4579      4580
      4578      4576      4579      4581      4578      4576      4579      4582
      4579      4582      4585      4586      4579      4582      4585      4587
      4579      4582      4585      4588      4580      4579      4582      4583
      4580      4579      4582      4584      4580      4579      4582      4585
      4581      4579      4582      4583      4581      4579      4582      4584
      4581      4579      4582      4585      4582      4585      4588      4589
      4582      4585      4588      4590      4582      4585      4588      4591
      4583      4582      4585      4586      4583      4582      4585      4587
      4583      4582      4585      4588      4584      4582      4585      4586
      4584      4582      4585      4587      4584      4582      4585      4588
      4586      4585      4588      4589      4586      4585      4588      4590
      4586      4585      4588      4591      4587      4585      4588      4589
      4587      4585      4588      4590      4587      4585      4588      4591
      4592      4595      4598      4599      4592      4595      4598      4600
      4592      4595      4598      4601      4593      4592      4595      4596
      4593      4592      4595      4597      4593      4592      4595      4598
      4594      4592      4595      4596      4594      4592      4595      4597
      4594      4592      4595      4598      4595      4598      4601      4602
      4595      4598      4601      4603      4595      4598      4601      4604
      4596      4595      4598      4599      4596      4595      4598      4600
      4596      4595      4598      4601      4597      4595      4598      4599
      4597      4595      4598      4600      4597      4595      4598      4601
      4598      4601      4604      4605      4598      4601      4604      4606
      4598      4601      4604      4607      4599      4598      4601      4602
      4599      4598      4601      4603      4599      4598      4601      4604
      4600      4598      4601      4602      4600      4598      4601      4603
      4600      4598      4601      4604      4601      4604      4607      4608
      4601      4604      4607      4609      4601      4604      4607      4610
      4602      4601      4604      4605      4602      4601      4604      4606
      4602      4601      4604      4607      4603      4601      4604      4605
      4603      4601      4604      4606      4603      4601      4604      4607
      4604      4607      4610      4611      4604      4607      4610      4612
      4604      4607      4610      4613      4605      4604      4607      4608
      4605      4604      4607      4609      4605      4604      4607      4610
      4606      4604      4607      4608      4606      4604      4607      4609
      4606      4604      4607      4610      4607      4610      4613      4614
      4607      4610      4613      4615      4607      4610      4613      4616
      4608      4607      4610      4611      4608      4607      4610      4612
      4608      4607      4610      4613      4609      4607      4610      4611
      4609      4607      4610      4612      4609      4607      4610      4613
      4610      4613      4616      4617      4610      4613      4616      4618
      4610      4613      4616      4619      4611      4610      4613      4614
      4611      4610      4613      4615      4611      4610      4613      4616
      4612      4610      4613      4614      4612      4610      4613      4615
      4612      4610      4613      4616      4613      4616      4619      4620
      4613      4616      4619      4621      4613      4616      4619      4622
      4614      4613      4616      4617      4614      4613      4616      4618
      4614      4613      4616      4619      4615      4613      4616      4617
      4615      4613      4616      4618      4615      4613      4616      4619
      4616      4619      4622      4623      4616      4619      4622      4624
      4616      4619      4622      4625      4617      4616      4619      4620
      4617      4616      4619      4621      4617      4616      4619      4622
      4618      4616      4619      4620      4618      4616      4619      4621
      4618      4616      4619      4622      4619      4622      4625      4626
      4619      4622      4625      4627      4619      4622      4625      4628
      4620      4619      4622      4623      4620      4619      4622      4624
      4620      4619      4622      4625      4621      4619      4622      4623
      4621      4619      4622      4624      4621      4619      4622      4625
      4622      4625      4628      4629      4622      4625      4628      4630
      4622      4625      4628      4631      4623      4622      4625      4626
      4623      4622      4625      4627      4623      4622      4625      4628
      4624      4622      4625      4626      4624      4622      4625      4627
      4624      4622      4625      4628      4625      4628      4631      4632
      4625      4628      4631      4633      4625      4628      4631      4634
      4626      4625      4628      4629      4626      4625      4628      4630
      4626      4625      4628      4631      4627      4625      4628      4629
      4627      4625      4628      4630      4627      4625      4628      4631
      4629      4628      4631      4632      4629      4628      4631      4633
      4629      4628      4631      4634      4630      4628      4631      4632
      4630      4628      4631      4633      4630      4628      4631      4634
      4635      4636      4651      4652      4635      4636      4651      4653
      4635      4636      4651      4657      4636      4635      4639      4640
      4636      4635      4639      4641      4636      4635      4639      4642
      4636      4635      4643      4644      4636      4635      4643      4645
      4636      4635      4643      4646      4636      4635      4647      4648
      4636      4635      4647      4649      4636      4635      4647      4650
      4636      4651      4657      4654      4637      4636      4635      4639
      4637      4636      4635      4643      4637      4636      4635      4647
      4637      4636      4651      4652      4637      4636      4651      4653
      4637      4636      4651      4657      4638      4636      4635      4639
      4638      4636      4635      4643      4638      4636      4635      4647
      4638      4636      4651      4652      4638      4636      4651      4653
      4638      4636      4651      4657      4639      4635      4636      4651
      4639      4635      4643      4644      4639      4635      4643      4645
      4639      4635      4643      4646      4639      4635      4647      4648
      4639      4635      4647      4649      4639      4635      4647      4650
      4640      4639      4635      4643      4640      4639      4635      4647
      4641      4639      4635      4643      4641      4639      4635      4647
      4642      4639      4635      4643      4642      4639      4635      4647
      4643      4635      4636      4651      4643      4635      4647      4648
      4643      4635      4647      4649      4643      4635      4647      4650
      4644      4643      4635      4647      4645      4643      4635      4647
      4646      4643      4635      4647      4647      4635      4636      4651
      4651      4657      4654      4655      4651      4657      4654      4656
      4651      4657      4654      4658      4652      4651      4657      4654
      4653      4651      4657      4654      4654      4658      4659      4660
      4654      4658      4659      4661      4654      4658      4659      4662
      4655      4654      4658      4659      4656      4654      4658      4659
      4657      4654      4658      4659      4658      4659      4662      4663
      4658      4659      4662      4664      4658      4659      4662      4670
      4659      4662      4664      4665      4659      4662      4670      4671
      4659      4662      4670      4672      4659      4662      4670      4673
      4660      4659      4662      4663      4660      4659      4662      4664
      4660      4659      4662      4670      4661      4659      4662      4663
      4661      4659      4662      4664      4661      4659      4662      4670
      4662      4664      4665      4666      4662      4664      4665      4667
      4662      4670      4673      4674      4663      4662      4664      4665
      4663      4662      4670      4671      4663      4662      4670      4672
      4663      4662      4670      4673      4664      4662      4670      4671
      4664      4662      4670      4672      4664      4662      4670      4673
      4664      4665      4667      4668      4664      4665      4667      4669
      4664      4665      4667      4679      4665      4664      4662      4670
      4665      4667      4679      4680      4665      4667      4679      4681
      4665      4667      4679      4682      4666      4665      4667      4668
      4666      4665      4667      4669      4666      4665      4667      4679
      4667      4679      4682      4683      4667      4679      4682      4684
      4667      4679      4682      4685      4668      4667      4679      4680
      4668      4667      4679      4681      4668      4667      4679      4682
      4669      4667      4679      4680      4669      4667      4679      4681
      4669      4667      4679      4682      4670      4673      4674      4675
      4670      4673      4674      4676      4671      4670      4673      4674
      4672      4670      4673      4674      4673      4674      4676      4677
      4673      4674      4676      4678      4673      4674      4676      4726
      4674      4676      4726      4727      4674      4676      4726      4728
      4674      4676      4726      4729      4675      4674      4676      4677
      4675      4674      4676      4678      4675      4674      4676      4726
      4676      4726      4729      4730      4676      4726      4729      4731
      4676      4726      4729      4732      4677      4676      4726      4727
      4677      4676      4726      4728      4677      4676      4726      4729
      4678      4676      4726      4727      4678      4676      4726      4728
      4678      4676      4726      4729      4679      4682      4685      4686
      4679      4682      4685      4687      4679      4682      4685      4688
      4680      4679      4682      4683      4680      4679      4682      4684
      4680      4679      4682      4685      4681      4679      4682      4683
      4681      4679      4682      4684      4681      4679      4682      4685
      4682      4685      4688      4689      4682      4685      4688      4690
      4682      4685      4688      4691      4683      4682      4685      4686
      4683      4682      4685      4687      4683      4682      4685      4688
      4684      4682      4685      4686      4684      4682      4685      4687
      4684      4682      4685      4688      4685      4688      4691      4692
      4685      4688      4691      4693      4685      4688      4691      4694
      4686      4685      4688      4689      4686      4685      4688      4690
      4686      4685      4688      4691      4687      4685      4688      4689
      4687      4685      4688      4690      4687      4685      4688      4691
      4688      4691      4694      4695      4688      4691      4694      4696
      4688      4691      4694      4697      4689      4688      4691      4692
      4689      4688      4691      4693      4689      4688      4691      4694
      4690      4688      4691      4692      4690      4688      4691      4693
      4690      4688      4691      4694      4691      4694      4697      4698
      4691      4694      4697      4699      4692      4691      4694      4695
      4692      4691      4694      4696      4692      4691      4694      4697
      4693      4691      4694      4695      4693      4691      4694      4696
      4693      4691      4694      4697      4694      4697      4699      4700
      4694      4697      4699      4701      4695      4694      4697      4698
      4695      4694      4697      4699      4696      4694      4697      4698
      4696      4694      4697      4699      4697      4699      4701      4702
      4697      4699      4701      4703      4697      4699      4701      4704
      4698      4697      4699      4700      4698      4697      4699      4701
      4699      4701      4704      4705      4699      4701      4704      4706
      4699      4701      4704      4707      4700      4699      4701      4702
      4700      4699      4701      4703      4700      4699      4701      4704
      4701      4704      4707      4708      4701      4704      4707      4709
      4701      4704      4707      4710      4702      4701      4704      4705
      4702      4701      4704      4706      4702      4701      4704      4707
      4703      4701      4704      4705      4703      4701      4704      4706
      4703      4701      4704      4707      4704      4707      4710      4711
      4704      4707      4710      4712      4704      4707      4710      4713
      4705      4704      4707      4708      4705      4704      4707      4709
      4705      4704      4707      4710      4706      4704      4707      4708
      4706      4704      4707      4709      4706      4704      4707      4710
      4707      4710      4713      4714      4707      4710      4713      4715
      4707      4710      4713      4716      4708      4707      4710      4711
      4708      4707      4710      4712      4708      4707      4710      4713
      4709      4707      4710      4711      4709      4707      4710      4712
      4709      4707      4710      4713      4710      4713      4716      4717
      4710      4713      4716      4718      4710      4713      4716      4719
      4711      4710      4713      4714      4711      4710      4713      4715
      4711      4710      4713      4716      4712      4710      4713      4714
      4712      4710      4713      4715      4712      4710      4713      4716
      4713      4716      4719      4720      4713      4716      4719      4721
      4713      4716      4719      4722      4714      4713      4716      4717
      4714      4713      4716      4718      4714      4713      4716      4719
      4715      4713      4716      4717      4715      4713      4716      4718
      4715      4713      4716      4719      4716      4719      4722      4723
      4716      4719      4722      4724      4716      4719      4722      4725
      4717      4716      4719      4720      4717      4716      4719      4721
      4717      4716      4719      4722      4718      4716      4719      4720
      4718      4716      4719      4721      4718      4716      4719      4722
      4720      4719      4722      4723      4720      4719      4722      4724
      4720      4719      4722      4725      4721      4719      4722      4723
      4721      4719      4722      4724      4721      4719      4722      4725
      4726      4729      4732      4733      4726      4729      4732      4734
      4726      4729      4732      4735      4727      4726      4729      4730
      4727      4726      4729      4731      4727      4726      4729      4732
      4728      4726      4729      4730      4728      4726      4729      4731
      4728      4726      4729      4732      4729      4732      4735      4736
      4729      4732      4735      4737      4729      4732      4735      4738
      4730      4729      4732      4733      4730      4729      4732      4734
      4730      4729      4732      4735      4731      4729      4732      4733
      4731      4729      4732      4734      4731      4729      4732      4735
      4732      4735      4738      4739      4732      4735      4738      4740
      4732      4735      4738      4741      4733      4732      4735      4736
      4733      4732      4735      4737      4733      4732      4735      4738
      4734      4732      4735      4736      4734      4732      4735      4737
      4734      4732      4735      4738      4735      4738      4741      4742
      4735      4738      4741      4743      4735      4738      4741      4744
      4736      4735      4738      4739      4736      4735      4738      4740
      4736      4735      4738      4741      4737      4735      4738      4739
      4737      4735      4738      4740      4737      4735      4738      4741
      4738      4741      4744      4745      4738      4741      4744      4746
      4738      4741      4744      4747      4739      4738      4741      4742
      4739      4738      4741      4743      4739      4738      4741      4744
      4740      4738      4741      4742      4740      4738      4741      4743
      4740      4738      4741      4744      4741      4744      4747      4748
      4741      4744      4747      4749      4741      4744      4747      4750
      4742      4741      4744      4745      4742      4741      4744      4746
      4742      4741      4744      4747      4743      4741      4744      4745
      4743      4741      4744      4746      4743      4741      4744      4747
      4744      4747      4750      4751      4744      4747      4750      4752
      4744      4747      4750      4753      4745      4744      4747      4748
      4745      4744      4747      4749      4745      4744      4747      4750
      4746      4744      4747      4748      4746      4744      4747      4749
      4746      4744      4747      4750      4747      4750      4753      4754
      4747      4750      4753      4755      4747      4750      4753      4756
      4748      4747      4750      4751      4748      4747      4750      4752
      4748      4747      4750      4753      4749      4747      4750      4751
      4749      4747      4750      4752      4749      4747      4750      4753
      4750      4753      4756      4757      4750      4753      4756      4758
      4750      4753      4756      4759      4751      4750      4753      4754
      4751      4750      4753      4755      4751      4750      4753      4756
      4752      4750      4753      4754      4752      4750      4753      4755
      4752      4750      4753      4756      4753      4756      4759      4760
      4753      4756      4759      4761      4753      4756      4759      4762
      4754      4753      4756      4757      4754      4753      4756      4758
      4754      4753      4756      4759      4755      4753      4756      4757
      4755      4753      4756      4758      4755      4753      4756      4759
      4756      4759      4762      4763      4756      4759      4762      4764
      4756      4759      4762      4765      4757      4756      4759      4760
      4757      4756      4759      4761      4757      4756      4759      4762
      4758      4756      4759      4760      4758      4756      4759      4761
      4758      4756      4759      4762      4759      4762      4765      4766
      4759      4762      4765      4767      4759      4762      4765      4768
      4760      4759      4762      4763      4760      4759      4762      4764
      4760      4759      4762      4765      4761      4759      4762      4763
      4761      4759      4762      4764      4761      4759      4762      4765
      4763      4762      4765      4766      4763      4762      4765      4767
      4763      4762      4765      4768      4764      4762      4765      4766
      4764      4762      4765      4767      4764      4762      4765      4768
      4769      4770      4785      4786      4769      4770      4785      4787
      4769      4770      4785      4791      4770      4769      4773      4774
      4770      4769      4773      4775      4770      4769      4773      4776
      4770      4769      4777      4778      4770      4769      4777      4779
      4770      4769      4777      4780      4770      4769      4781      4782
      4770      4769      4781      4783      4770      4769      4781      4784
      4770      4785      4791      4788      4771      4770      4769      4773
      4771      4770      4769      4777      4771      4770      4769      4781
      4771      4770      4785      4786      4771      4770      4785      4787
      4771      4770      4785      4791      4772      4770      4769      4773
      4772      4770      4769      4777      4772      4770      4769      4781
      4772      4770      4785      4786      4772      4770      4785      4787
      4772      4770      4785      4791      4773      4769      4770      4785
      4773      4769      4777      4778      4773      4769      4777      4779
      4773      4769      4777      4780      4773      4769      4781      4782
      4773      4769      4781      4783      4773      4769      4781      4784
      4774      4773      4769      4777      4774      4773      4769      4781
      4775      4773      4769      4777      4775      4773      4769      4781
      4776      4773      4769      4777      4776      4773      4769      4781
      4777      4769      4770      4785      4777      4769      4781      4782
      4777      4769      4781      4783      4777      4769      4781      4784
      4778      4777      4769      4781      4779      4777      4769      4781
      4780      4777      4769      4781      4781      4769      4770      4785
      4785      4791      4788      4789      4785      4791      4788      4790
      4785      4791      4788      4792      4786      4785      4791      4788
      4787      4785      4791      4788      4788      4792      4793      4794
      4788      4792      4793      4795      4788      4792      4793      4796
      4789      4788      4792      4793      4790      4788      4792      4793
      4791      4788      4792      4793      4792      4793      4796      4797
      4792      4793      4796      4798      4792      4793      4796      4804
      4793      4796      4798      4799      4793      4796      4804      4805
      4793      4796      4804      4806      4793      4796      4804      4807
      4794      4793      4796      4797      4794      4793      4796      4798
      4794      4793      4796      4804      4795      4793      4796      4797
      4795      4793      4796      4798      4795      4793      4796      4804
      4796      4798      4799      4800      4796      4798      4799      4801
      4796      4804      4807      4808      4797      4796      4798      4799
      4797      4796      4804      4805      4797      4796      4804      4806
      4797      4796      4804      4807      4798      4796      4804      4805
      4798      4796      4804      4806      4798      4796      4804      4807
      4798      4799      4801      4802      4798      4799      4801      4803
      4798      4799      4801      4813      4799      4798      4796      4804
      4799      4801      4813      4814      4799      4801      4813      4815
      4799      4801      4813      4816      4800      4799      4801      4802
      4800      4799      4801      4803      4800      4799      4801      4813
      4801      4813      4816      4817      4801      4813      4816      4818
      4801      4813      4816      4819      4802      4801      4813      4814
      4802      4801      4813      4815      4802      4801      4813      4816
      4803      4801      4813      4814      4803      4801      4813      4815
      4803      4801      4813      4816      4804      4807      4808      4809
      4804      4807      4808      4810      4805      4804      4807      4808
      4806      4804      4807      4808      4807      4808      4810      4811
      4807      4808      4810      4812      4807      4808      4810      4860
      4808      4810      4860      4861      4808      4810      4860      4862
      4808      4810      4860      4863      4809      4808      4810      4811
      4809      4808      4810      4812      4809      4808      4810      4860
      4810      4860      4863      4864      4810      4860      4863      4865
      4810      4860      4863      4866      4811      4810      4860      4861
      4811      4810      4860      4862      4811      4810      4860      4863
      4812      4810      4860      4861      4812      4810      4860      4862
      4812      4810      4860      4863      4813      4816      4819      4820
      4813      4816      4819      4821      4813      4816      4819      4822
      4814      4813      4816      4817      4814      4813      4816      4818
      4814      4813      4816      4819      4815      4813      4816      4817
      4815      4813      4816      4818      4815      4813      4816      4819
      4816      4819      4822      4823      4816      4819      4822      4824
      4816      4819      4822      4825      4817      4816      4819      4820
      4817      4816      4819      4821      4817      4816      4819      4822
      4818      4816      4819      4820      4818      4816      4819      4821
      4818      4816      4819      4822      4819      4822      4825      4826
      4819      4822      4825      4827      4819      4822      4825      4828
      4820      4819      4822      4823      4820      4819      4822      4824
      4820      4819      4822      4825      4821      4819      4822      4823
      4821      4819      4822      4824      4821      4819      4822      4825
      4822      4825      4828      4829      4822      4825      4828      4830
      4822      4825      4828      4831      4823      4822      4825      4826
      4823      4822      4825      4827      4823      4822      4825      4828
      4824      4822      4825      4826      4824      4822      4825      4827
      4824      4822      4825      4828      4825      4828      4831      4832
      4825      4828      4831      4833      4826      4825      4828      4829
      4826      4825      4828      4830      4826      4825      4828      4831
      4827      4825      4828      4829      4827      4825      4828      4830
      4827      4825      4828      4831      4828      4831      4833      4834
      4828      4831      4833      4835      4829      4828      4831      4832
      4829      4828      4831      4833      4830      4828      4831      4832
      4830      4828      4831      4833      4831      4833      4835      4836
      4831      4833      4835      4837      4831      4833      4835      4838
      4832      4831      4833      4834      4832      4831      4833      4835
      4833      4835      4838      4839      4833      4835      4838      4840
      4833      4835      4838      4841      4834      4833      4835      4836
      4834      4833      4835      4837      4834      4833      4835      4838
      4835      4838      4841      4842      4835      4838      4841      4843
      4835      4838      4841      4844      4836      4835      4838      4839
      4836      4835      4838      4840      4836      4835      4838      4841
      4837      4835      4838      4839      4837      4835      4838      4840
      4837      4835      4838      4841      4838      4841      4844      4845
      4838      4841      4844      4846      4838      4841      4844      4847
      4839      4838      4841      4842      4839      4838      4841      4843
      4839      4838      4841      4844      4840      4838      4841      4842
      4840      4838      4841      4843      4840      4838      4841      4844
      4841      4844      4847      4848      4841      4844      4847      4849
      4841      4844      4847      4850      4842      4841      4844      4845
      4842      4841      4844      4846      4842      4841      4844      4847
      4843      4841      4844      4845      4843      4841      4844      4846
      4843      4841      4844      4847      4844      4847      4850      4851
      4844      4847      4850      4852      4844      4847      4850      4853
      4845      4844      4847      4848      4845      4844      4847      4849
      4845      4844      4847      4850      4846      4844      4847      4848
      4846      4844      4847      4849      4846      4844      4847      4850
      4847      4850      4853      4854      4847      4850      4853      4855
      4847      4850      4853      4856      4848      4847      4850      4851
      4848      4847      4850      4852      4848      4847      4850      4853
      4849      4847      4850      4851      4849      4847      4850      4852
      4849      4847      4850      4853      4850      4853      4856      4857
      4850      4853      4856      4858      4850      4853      4856      4859
      4851      4850      4853      4854      4851      4850      4853      4855
      4851      4850      4853      4856      4852      4850      4853      4854
      4852      4850      4853      4855      4852      4850      4853      4856
      4854      4853      4856      4857      4854      4853      4856      4858
      4854      4853      4856      4859      4855      4853      4856      4857
      4855      4853      4856      4858      4855      4853      4856      4859
      4860      4863      4866      4867      4860      4863      4866      4868
      4860      4863      4866      4869      4861      4860      4863      4864
      4861      4860      4863      4865      4861      4860      4863      4866
      4862      4860      4863      4864      4862      4860      4863      4865
      4862      4860      4863      4866      4863      4866      4869      4870
      4863      4866      4869      4871      4863      4866      4869      4872
      4864      4863      4866      4867      4864      4863      4866      4868
      4864      4863      4866      4869      4865      4863      4866      4867
      4865      4863      4866      4868      4865      4863      4866      4869
      4866      4869      4872      4873      4866      4869      4872      4874
      4866      4869      4872      4875      4867      4866      4869      4870
      4867      4866      4869      4871      4867      4866      4869      4872
      4868      4866      4869      4870      4868      4866      4869      4871
      4868      4866      4869      4872      4869      4872      4875      4876
      4869      4872      4875      4877      4869      4872      4875      4878
      4870      4869      4872      4873      4870      4869      4872      4874
      4870      4869      4872      4875      4871      4869      4872      4873
      4871      4869      4872      4874      4871      4869      4872      4875
      4872      4875      4878      4879      4872      4875      4878      4880
      4872      4875      4878      4881      4873      4872      4875      4876
      4873      4872      4875      4877      4873      4872      4875      4878
      4874      4872      4875      4876      4874      4872      4875      4877
      4874      4872      4875      4878      4875      4878      4881      4882
      4875      4878      4881      4883      4875      4878      4881      4884
      4876      4875      4878      4879      4876      4875      4878      4880
      4876      4875      4878      4881      4877      4875      4878      4879
      4877      4875      4878      4880      4877      4875      4878      4881
      4878      4881      4884      4885      4878      4881      4884      4886
      4878      4881      4884      4887      4879      4878      4881      4882
      4879      4878      4881      4883      4879      4878      4881      4884
      4880      4878      4881      4882      4880      4878      4881      4883
      4880      4878      4881      4884      4881      4884      4887      4888
      4881      4884      4887      4889      4881      4884      4887      4890
      4882      4881      4884      4885      4882      4881      4884      4886
      4882      4881      4884      4887      4883      4881      4884      4885
      4883      4881      4884      4886      4883      4881      4884      4887
      4884      4887      4890      4891      4884      4887      4890      4892
      4884      4887      4890      4893      4885      4884      4887      4888
      4885      4884      4887      4889      4885      4884      4887      4890
      4886      4884      4887      4888      4886      4884      4887      4889
      4886      4884      4887      4890      4887      4890      4893      4894
      4887      4890      4893      4895      4887      4890      4893      4896
      4888      4887      4890      4891      4888      4887      4890      4892
      4888      4887      4890      4893      4889      4887      4890      4891
      4889      4887      4890      4892      4889      4887      4890      4893
      4890      4893      4896      4897      4890      4893      4896      4898
      4890      4893      4896      4899      4891      4890      4893      4894
      4891      4890      4893      4895      4891      4890      4893      4896
      4892      4890      4893      4894      4892      4890      4893      4895
      4892      4890      4893      4896      4893      4896      4899      4900
      4893      4896      4899      4901      4893      4896      4899      4902
      4894      4893      4896      4897      4894      4893      4896      4898
      4894      4893      4896      4899      4895      4893      4896      4897
      4895      4893      4896      4898      4895      4893      4896      4899
      4897      4896      4899      4900      4897      4896      4899      4901
      4897      4896      4899      4902      4898      4896      4899      4900
      4898      4896      4899      4901      4898      4896      4899      4902
      4903      4904      4919      4920      4903      4904      4919      4921
      4903      4904      4919      4925      4904      4903      4907      4908
      4904      4903      4907      4909      4904      4903      4907      4910
      4904      4903      4911      4912      4904      4903      4911      4913
      4904      4903      4911      4914      4904      4903      4915      4916
      4904      4903      4915      4917      4904      4903      4915      4918
      4904      4919      4925      4922      4905      4904      4903      4907
      4905      4904      4903      4911      4905      4904      4903      4915
      4905      4904      4919      4920      4905      4904      4919      4921
      4905      4904      4919      4925      4906      4904      4903      4907
      4906      4904      4903      4911      4906      4904      4903      4915
      4906      4904      4919      4920      4906      4904      4919      4921
      4906      4904      4919      4925      4907      4903      4904      4919
      4907      4903      4911      4912      4907      4903      4911      4913
      4907      4903      4911      4914      4907      4903      4915      4916
      4907      4903      4915      4917      4907      4903      4915      4918
      4908      4907      4903      4911      4908      4907      4903      4915
      4909      4907      4903      4911      4909      4907      4903      4915
      4910      4907      4903      4911      4910      4907      4903      4915
      4911      4903      4904      4919      4911      4903      4915      4916
      4911      4903      4915      4917      4911      4903      4915      4918
      4912      4911      4903      4915      4913      4911      4903      4915
      4914      4911      4903      4915      4915      4903      4904      4919
      4919      4925      4922      4923      4919      4925      4922      4924
      4919      4925      4922      4926      4920      4919      4925      4922
      4921      4919      4925      4922      4922      4926      4927      4928
      4922      4926      4927      4929      4922      4926      4927      4930
      4923      4922      4926      4927      4924      4922      4926      4927
      4925      4922      4926      4927      4926      4927      4930      4931
      4926      4927      4930      4932      4926      4927      4930      4938
      4927      4930      4932      4933      4927      4930      4938      4939
      4927      4930      4938      4940      4927      4930      4938      4941
      4928      4927      4930      4931      4928      4927      4930      4932
      4928      4927      4930      4938      4929      4927      4930      4931
      4929      4927      4930      4932      4929      4927      4930      4938
      4930      4932      4933      4934      4930      4932      4933      4935
      4930      4938      4941      4942      4931      4930      4932      4933
      4931      4930      4938      4939      4931      4930      4938      4940
      4931      4930      4938      4941      4932      4930      4938      4939
      4932      4930      4938      4940      4932      4930      4938      4941
      4932      4933      4935      4936      4932      4933      4935      4937
      4932      4933      4935      4947      4933      4932      4930      4938
      4933      4935      4947      4948      4933      4935      4947      4949
      4933      4935      4947      4950      4934      4933      4935      4936
      4934      4933      4935      4937      4934      4933      4935      4947
      4935      4947      4950      4951      4935      4947      4950      4952
      4935      4947      4950      4953      4936      4935      4947      4948
      4936      4935      4947      4949      4936      4935      4947      4950
      4937      4935      4947      4948      4937      4935      4947      4949
      4937      4935      4947      4950      4938      4941      4942      4943
      4938      4941      4942      4944      4939      4938      4941      4942
      4940      4938      4941      4942      4941      4942      4944      4945
      4941      4942      4944      4946      4941      4942      4944      4994
      4942      4944      4994      4995      4942      4944      4994      4996
      4942      4944      4994      4997      4943      4942      4944      4945
      4943      4942      4944      4946      4943      4942      4944      4994
      4944      4994      4997      4998      4944      4994      4997      4999
      4944      4994      4997      5000      4945      4944      4994      4995
      4945      4944      4994      4996      4945      4944      4994      4997
      4946      4944      4994      4995      4946      4944      4994      4996
      4946      4944      4994      4997      4947      4950      4953      4954
      4947      4950      4953      4955      4947      4950      4953      4956
      4948      4947      4950      4951      4948      4947      4950      4952
      4948      4947      4950      4953      4949      4947      4950      4951
      4949      4947      4950      4952      4949      4947      4950      4953
      4950      4953      4956      4957      4950      4953      4956      4958
      4950      4953      4956      4959      4951      4950      4953      4954
      4951      4950      4953      4955      4951      4950      4953      4956
      4952      4950      4953      4954      4952      4950      4953      4955
      4952      4950      4953      4956      4953      4956      4959      4960
      4953      4956      4959      4961      4953      4956      4959      4962
      4954      4953      4956      4957      4954      4953      4956      4958
      4954      4953      4956      4959      4955      4953      4956      4957
      4955      4953      4956      4958      4955      4953      4956      4959
      4956      4959      4962      4963      4956      4959      4962      4964
      4956      4959      4962      4965      4957      4956      4959      4960
      4957      4956      4959      4961      4957      4956      4959      4962
      4958      4956      4959      4960      4958      4956      4959      4961
      4958      4956      4959      4962      4959      4962      4965      4966
      4959      4962      4965      4967      4960      4959      4962      4963
      4960      4959      4962      4964      4960      4959      4962      4965
      4961      4959      4962      4963      4961      4959      4962      4964
      4961      4959      4962      4965      4962      4965      4967      4968
      4962      4965      4967      4969      4963      4962      4965      4966
      4963      4962      4965      4967      4964      4962      4965      4966
      4964      4962      4965      4967      4965      4967      4969      4970
      4965      4967      4969      4971      4965      4967      4969      4972
      4966      4965      4967      4968      4966      4965      4967      4969
      4967      4969      4972      4973      4967      4969      4972      4974
      4967      4969      4972      4975      4968      4967      4969      4970
      4968      4967      4969      4971      4968      4967      4969      4972
      4969      4972      4975      4976      4969      4972      4975      4977
      4969      4972      4975      4978      4970      4969      4972      4973
      4970      4969      4972      4974      4970      4969      4972      4975
      4971      4969      4972      4973      4971      4969      4972      4974
      4971      4969      4972      4975      4972      4975      4978      4979
      4972      4975      4978      4980      4972      4975      4978      4981
      4973      4972      4975      4976      4973      4972      4975      4977
      4973      4972      4975      4978      4974      4972      4975      4976
      4974      4972      4975      4977      4974      4972      4975      4978
      4975      4978      4981      4982      4975      4978      4981      4983
      4975      4978      4981      4984      4976      4975      4978      4979
      4976      4975      4978      4980      4976      4975      4978      4981
      4977      4975      4978      4979      4977      4975      4978      4980
      4977      4975      4978      4981      4978      4981      4984      4985
      4978      4981      4984      4986      4978      4981      4984      4987
      4979      4978      4981      4982      4979      4978      4981      4983
      4979      4978      4981      4984      4980      4978      4981      4982
      4980      4978      4981      4983      4980      4978      4981      4984
      4981      4984      4987      4988      4981      4984      4987      4989
      4981      4984      4987      4990      4982      4981      4984      4985
      4982      4981      4984      4986      4982      4981      4984      4987
      4983      4981      4984      4985      4983      4981      4984      4986
      4983      4981      4984      4987      4984      4987      4990      4991
      4984      4987      4990      4992      4984      4987      4990      4993
      4985      4984      4987      4988      4985      4984      4987      4989
      4985      4984      4987      4990      4986      4984      4987      4988
      4986      4984      4987      4989      4986      4984      4987      4990
      4988      4987      4990      4991      4988      4987      4990      4992
      4988      4987      4990      4993      4989      4987      4990      4991
      4989      4987      4990      4992      4989      4987      4990      4993
      4994      4997      5000      5001      4994      4997      5000      5002
      4994      4997      5000      5003      4995      4994      4997      4998
      4995      4994      4997      4999      4995      4994      4997      5000
      4996      4994      4997      4998      4996      4994      4997      4999
      4996      4994      4997      5000      4997      5000      5003      5004
      4997      5000      5003      5005      4997      5000      5003      5006
      4998      4997      5000      5001      4998      4997      5000      5002
      4998      4997      5000      5003      4999      4997      5000      5001
      4999      4997      5000      5002      4999      4997      5000      5003
      5000      5003      5006      5007      5000      5003      5006      5008
      5000      5003      5006      5009      5001      5000      5003      5004
      5001      5000      5003      5005      5001      5000      5003      5006
      5002      5000      5003      5004      5002      5000      5003      5005
      5002      5000      5003      5006      5003      5006      5009      5010
      5003      5006      5009      5011      5003      5006      5009      5012
      5004      5003      5006      5007      5004      5003      5006      5008
      5004      5003      5006      5009      5005      5003      5006      5007
      5005      5003      5006      5008      5005      5003      5006      5009
      5006      5009      5012      5013      5006      5009      5012      5014
      5006      5009      5012      5015      5007      5006      5009      5010
      5007      5006      5009      5011      5007      5006      5009      5012
      5008      5006      5009      5010      5008      5006      5009      5011
      5008      5006      5009      5012      5009      5012      5015      5016
      5009      5012      5015      5017      5009      5012      5015      5018
      5010      5009      5012      5013      5010      5009      5012      5014
      5010      5009      5012      5015      5011      5009      5012      5013
      5011      5009      5012      5014      5011      5009      5012      5015
      5012      5015      5018      5019      5012      5015      5018      5020
      5012      5015      5018      5021      5013      5012      5015      5016
      5013      5012      5015      5017      5013      5012      5015      5018
      5014      5012      5015      5016      5014      5012      5015      5017
      5014      5012      5015      5018      5015      5018      5021      5022
      5015      5018      5021      5023      5015      5018      5021      5024
      5016      5015      5018      5019      5016      5015      5018      5020
      5016      5015      5018      5021      5017      5015      5018      5019
      5017      5015      5018      5020      5017      5015      5018      5021
      5018      5021      5024      5025      5018      5021      5024      5026
      5018      5021      5024      5027      5019      5018      5021      5022
      5019      5018      5021      5023      5019      5018      5021      5024
      5020      5018      5021      5022      5020      5018      5021      5023
      5020      5018      5021      5024      5021      5024      5027      5028
      5021      5024      5027      5029      5021      5024      5027      5030
      5022      5021      5024      5025      5022      5021      5024      5026
      5022      5021      5024      5027      5023      5021      5024      5025
      5023      5021      5024      5026      5023      5021      5024      5027
      5024      5027      5030      5031      5024      5027      5030      5032
      5024      5027      5030      5033      5025      5024      5027      5028
      5025      5024      5027      5029      5025      5024      5027      5030
      5026      5024      5027      5028      5026      5024      5027      5029
      5026      5024      5027      5030      5027      5030      5033      5034
      5027      5030      5033      5035      5027      5030      5033      5036
      5028      5027      5030      5031      5028      5027      5030      5032
      5028      5027      5030      5033      5029      5027      5030      5031
      5029      5027      5030      5032      5029      5027      5030      5033
      5031      5030      5033      5034      5031      5030      5033      5035
      5031      5030      5033      5036      5032      5030      5033      5034
      5032      5030      5033      5035      5032      5030      5033      5036
      5037      5038      5053      5054      5037      5038      5053      5055
      5037      5038      5053      5059      5038      5037      5041      5042
      5038      5037      5041      5043      5038      5037      5041      5044
      5038      5037      5045      5046      5038      5037      5045      5047
      5038      5037      5045      5048      5038      5037      5049      5050
      5038      5037      5049      5051      5038      5037      5049      5052
      5038      5053      5059      5056      5039      5038      5037      5041
      5039      5038      5037      5045      5039      5038      5037      5049
      5039      5038      5053      5054      5039      5038      5053      5055
      5039      5038      5053      5059      5040      5038      5037      5041
      5040      5038      5037      5045      5040      5038      5037      5049
      5040      5038      5053      5054      5040      5038      5053      5055
      5040      5038      5053      5059      5041      5037      5038      5053
      5041      5037      5045      5046      5041      5037      5045      5047
      5041      5037      5045      5048      5041      5037      5049      5050
      5041      5037      5049      5051      5041      5037      5049      5052
      5042      5041      5037      5045      5042      5041      5037      5049
      5043      5041      5037      5045      5043      5041      5037      5049
      5044      5041      5037      5045      5044      5041      5037      5049
      5045      5037      5038      5053      5045      5037      5049      5050
      5045      5037      5049      5051      5045      5037      5049      5052
      5046      5045      5037      5049      5047      5045      5037      5049
      5048      5045      5037      5049      5049      5037      5038      5053
      5053      5059      5056      5057      5053      5059      5056      5058
      5053      5059      5056      5060      5054      5053      5059      5056
      5055      5053      5059      5056      5056      5060      5061      5062
      5056      5060      5061      5063      5056      5060      5061      5064
      5057      5056      5060      5061      5058      5056      5060      5061
      5059      5056      5060      5061      5060      5061      5064      5065
      5060      5061      5064      5066      5060      5061      5064      5072
      5061      5064      5066      5067      5061      5064      5072      5073
      5061      5064      5072      5074      5061      5064      5072      5075
      5062      5061      5064      5065      5062      5061      5064      5066
      5062      5061      5064      5072      5063      5061      5064      5065
      5063      5061      5064      5066      5063      5061      5064      5072
      5064      5066      5067      5068      5064      5066      5067      5069
      5064      5072      5075      5076      5065      5064      5066      5067
      5065      5064      5072      5073      5065      5064      5072      5074
      5065      5064      5072      5075      5066      5064      5072      5073
      5066      5064      5072      5074      5066      5064      5072      5075
      5066      5067      5069      5070      5066      5067      5069      5071
      5066      5067      5069      5081      5067      5066      5064      5072
      5067      5069      5081      5082      5067      5069      5081      5083
      5067      5069      5081      5084      5068      5067      5069      5070
      5068      5067      5069      5071      5068      5067      5069      5081
      5069      5081      5084      5085      5069      5081      5084      5086
      5069      5081      5084      5087      5070      5069      5081      5082
      5070      5069      5081      5083      5070      5069      5081      5084
      5071      5069      5081      5082      5071      5069      5081      5083
      5071      5069      5081      5084      5072      5075      5076      5077
      5072      5075      5076      5078      5073      5072      5075      5076
      5074      5072      5075      5076      5075      5076      5078      5079
      5075      5076      5078      5080      5075      5076      5078      5128
      5076      5078      5128      5129      5076      5078      5128      5130
      5076      5078      5128      5131      5077      5076      5078      5079
      5077      5076      5078      5080      5077      5076      5078      5128
      5078      5128      5131      5132      5078      5128      5131      5133
      5078      5128      5131      5134      5079      5078      5128      5129
      5079      5078      5128      5130      5079      5078      5128      5131
      5080      5078      5128      5129      5080      5078      5128      5130
      5080      5078      5128      5131      5081      5084      5087      5088
      5081      5084      5087      5089      5081      5084      5087      5090
      5082      5081      5084      5085      5082      5081      5084      5086
      5082      5081      5084      5087      5083      5081      5084      5085
      5083      5081      5084      5086      5083      5081      5084      5087
      5084      5087      5090      5091      5084      5087      5090      5092
      5084      5087      5090      5093      5085      5084      5087      5088
      5085      5084      5087      5089      5085      5084      5087      5090
      5086      5084      5087      5088      5086      5084      5087      5089
      5086      5084      5087      5090      5087      5090      5093      5094
      5087      5090      5093      5095      5087      5090      5093      5096
      5088      5087      5090      5091      5088      5087      5090      5092
      5088      5087      5090      5093      5089      5087      5090      5091
      5089      5087      5090      5092      5089      5087      5090      5093
      5090      5093      5096      5097      5090      5093      5096      5098
      5090      5093      5096      5099      5091      5090      5093      5094
      5091      5090      5093      5095      5091      5090      5093      5096
      5092      5090      5093      5094      5092      5090      5093      5095
      5092      5090      5093      5096      5093      5096      5099      5100
      5093      5096      5099      5101      5094      5093      5096      5097
      5094      5093      5096      5098      5094      5093      5096      5099
      5095      5093      5096      5097      5095      5093      5096      5098
      5095      5093      5096      5099      5096      5099      5101      5102
      5096      5099      5101      5103      5097      5096      5099      5100
      5097      5096      5099      5101      5098      5096      5099      5100
      5098      5096      5099      5101      5099      5101      5103      5104
      5099      5101      5103      5105      5099      5101      5103      5106
      5100      5099      5101      5102      5100      5099      5101      5103
      5101      5103      5106      5107      5101      5103      5106      5108
      5101      5103      5106      5109      5102      5101      5103      5104
      5102      5101      5103      5105      5102      5101      5103      5106
      5103      5106      5109      5110      5103      5106      5109      5111
      5103      5106      5109      5112      5104      5103      5106      5107
      5104      5103      5106      5108      5104      5103      5106      5109
      5105      5103      5106      5107      5105      5103      5106      5108
      5105      5103      5106      5109      5106      5109      5112      5113
      5106      5109      5112      5114      5106      5109      5112      5115
      5107      5106      5109      5110      5107      5106      5109      5111
      5107      5106      5109      5112      5108      5106      5109      5110
      5108      5106      5109      5111      5108      5106      5109      5112
      5109      5112      5115      5116      5109      5112      5115      5117
      5109      5112      5115      5118      5110      5109      5112      5113
      5110      5109      5112      5114      5110      5109      5112      5115
      5111      5109      5112      5113      5111      5109      5112      5114
      5111      5109      5112      5115      5112      5115      5118      5119
      5112      5115      5118      5120      5112      5115      5118      5121
      5113      5112      5115      5116      5113      5112      5115      5117
      5113      5112      5115      5118      5114      5112      5115      5116
      5114      5112      5115      5117      5114      5112      5115      5118
      5115      5118      5121      5122      5115      5118      5121      5123
      5115      5118      5121      5124      5116      5115      5118      5119
      5116      5115      5118      5120      5116      5115      5118      5121
      5117      5115      5118      5119      5117      5115      5118      5120
      5117      5115      5118      5121      5118      5121      5124      5125
      5118      5121      5124      5126      5118      5121      5124      5127
      5119      5118      5121      5122      5119      5118      5121      5123
      5119      5118      5121      5124      5120      5118      5121      5122
      5120      5118      5121      5123      5120      5118      5121      5124
      5122      5121      5124      5125      5122      5121      5124      5126
      5122      5121      5124      5127      5123      5121      5124      5125
      5123      5121      5124      5126      5123      5121      5124      5127
      5128      5131      5134      5135      5128      5131      5134      5136
      5128      5131      5134      5137      5129      5128      5131      5132
      5129      5128      5131      5133      5129      5128      5131      5134
      5130      5128      5131      5132      5130      5128      5131      5133
      5130      5128      5131      5134      5131      5134      5137      5138
      5131      5134      5137      5139      5131      5134      5137      5140
      5132      5131      5134      5135      5132      5131      5134      5136
      5132      5131      5134      5137      5133      5131      5134      5135
      5133      5131      5134      5136      5133      5131      5134      5137
      5134      5137      5140      5141      5134      5137      5140      5142
      5134      5137      5140      5143      5135      5134      5137      5138
      5135      5134      5137      5139      5135      5134      5137      5140
      5136      5134      5137      5138      5136      5134      5137      5139
      5136      5134      5137      5140      5137      5140      5143      5144
      5137      5140      5143      5145      5137      5140      5143      5146
      5138      5137      5140      5141      5138      5137      5140      5142
      5138      5137      5140      5143      5139      5137      5140      5141
      5139      5137      5140      5142      5139      5137      5140      5143
      5140      5143      5146      5147      5140      5143      5146      5148
      5140      5143      5146      5149      5141      5140      5143      5144
      5141      5140      5143      5145      5141      5140      5143      5146
      5142      5140      5143      5144      5142      5140      5143      5145
      5142      5140      5143      5146      5143      5146      5149      5150
      5143      5146      5149      5151      5143      5146      5149      5152
      5144      5143      5146      5147      5144      5143      5146      5148
      5144      5143      5146      5149      5145      5143      5146      5147
      5145      5143      5146      5148      5145      5143      5146      5149
      5146      5149      5152      5153      5146      5149      5152      5154
      5146      5149      5152      5155      5147      5146      5149      5150
      5147      5146      5149      5151      5147      5146      5149      5152
      5148      5146      5149      5150      5148      5146      5149      5151
      5148      5146      5149      5152      5149      5152      5155      5156
      5149      5152      5155      5157      5149      5152      5155      5158
      5150      5149      5152      5153      5150      5149      5152      5154
      5150      5149      5152      5155      5151      5149      5152      5153
      5151      5149      5152      5154      5151      5149      5152      5155
      5152      5155      5158      5159      5152      5155      5158      5160
      5152      5155      5158      5161      5153      5152      5155      5156
      5153      5152      5155      5157      5153      5152      5155      5158
      5154      5152      5155      5156      5154      5152      5155      5157
      5154      5152      5155      5158      5155      5158      5161      5162
      5155      5158      5161      5163      5155      5158      5161      5164
      5156      5155      5158      5159      5156      5155      5158      5160
      5156      5155      5158      5161      5157      5155      5158      5159
      5157      5155      5158      5160      5157      5155      5158      5161
      5158      5161      5164      5165      5158      5161      5164      5166
      5158      5161      5164      5167      5159      5158      5161      5162
      5159      5158      5161      5163      5159      5158      5161      5164
      5160      5158      5161      5162      5160      5158      5161      5163
      5160      5158      5161      5164      5161      5164      5167      5168
      5161      5164      5167      5169      5161      5164      5167      5170
      5162      5161      5164      5165      5162      5161      5164      5166
      5162      5161      5164      5167      5163      5161      5164      5165
      5163      5161      5164      5166      5163      5161      5164      5167
      5165      5164      5167      5168      5165      5164      5167      5169
      5165      5164      5167      5170      5166      5164      5167      5168
      5166      5164      5167      5169      5166      5164      5167      5170
      5171      5172      5187      5188      5171      5172      5187      5189
      5171      5172      5187      5193      5172      5171      5175      5176
      5172      5171      5175      5177      5172      5171      5175      5178
      5172      5171      5179      5180      5172      5171      5179      5181
      5172      5171      5179      5182      5172      5171      5183      5184
      5172      5171      5183      5185      5172      5171      5183      5186
      5172      5187      5193      5190      5173      5172      5171      5175
      5173      5172      5171      5179      5173      5172      5171      5183
      5173      5172      5187      5188      5173      5172      5187      5189
      5173      5172      5187      5193      5174      5172      5171      5175
      5174      5172      5171      5179      5174      5172      5171      5183
      5174      5172      5187      5188      5174      5172      5187      5189
      5174      5172      5187      5193      5175      5171      5172      5187
      5175      5171      5179      5180      5175      5171      5179      5181
      5175      5171      5179      5182      5175      5171      5183      5184
      5175      5171      5183      5185      5175      5171      5183      5186
      5176      5175      5171      5179      5176      5175      5171      5183
      5177      5175      5171      5179      5177      5175      5171      5183
      5178      5175      5171      5179      5178      5175      5171      5183
      5179      5171      5172      5187      5179      5171      5183      5184
      5179      5171      5183      5185      5179      5171      5183      5186
      5180      5179      5171      5183      5181      5179      5171      5183
      5182      5179      5171      5183      5183      5171      5172      5187
      5187      5193      5190      5191      5187      5193      5190      5192
      5187      5193      5190      5194      5188      5187      5193      5190
      5189      5187      5193      5190      5190      5194      5195      5196
      5190      5194      5195      5197      5190      5194      5195      5198
      5191      5190      5194      5195      5192      5190      5194      5195
      5193      5190      5194      5195      5194      5195      5198      5199
      5194      5195      5198      5200      5194      5195      5198      5206
      5195      5198      5200      5201      5195      5198      5206      5207
      5195      5198      5206      5208      5195      5198      5206      5209
      5196      5195      5198      5199      5196      5195      5198      5200
      5196      5195      5198      5206      5197      5195      5198      5199
      5197      5195      5198      5200      5197      5195      5198      5206
      5198      5200      5201      5202      5198      5200      5201      5203
      5198      5206      5209      5210      5199      5198      5200      5201
      5199      5198      5206      5207      5199      5198      5206      5208
      5199      5198      5206      5209      5200      5198      5206      5207
      5200      5198      5206      5208      5200      5198      5206      5209
      5200      5201      5203      5204      5200      5201      5203      5205
      5200      5201      5203      5215      5201      5200      5198      5206
      5201      5203      5215      5216      5201      5203      5215      5217
      5201      5203      5215      5218      5202      5201      5203      5204
      5202      5201      5203      5205      5202      5201      5203      5215
      5203      5215      5218      5219      5203      5215      5218      5220
      5203      5215      5218      5221      5204      5203      5215      5216
      5204      5203      5215      5217      5204      5203      5215      5218
      5205      5203      5215      5216      5205      5203      5215      5217
      5205      5203      5215      5218      5206      5209      5210      5211
      5206      5209      5210      5212      5207      5206      5209      5210
      5208      5206      5209      5210      5209      5210      5212      5213
      5209      5210      5212      5214      5209      5210      5212      5262
      5210      5212      5262      5263      5210      5212      5262      5264
      5210      5212      5262      5265      5211      5210      5212      5213
      5211      5210      5212      5214      5211      5210      5212      5262
      5212      5262      5265      5266      5212      5262      5265      5267
      5212      5262      5265      5268      5213      5212      5262      5263
      5213      5212      5262      5264      5213      5212      5262      5265
      5214      5212      5262      5263      5214      5212      5262      5264
      5214      5212      5262      5265      5215      5218      5221      5222
      5215      5218      5221      5223      5215      5218      5221      5224
      5216      5215      5218      5219      5216      5215      5218      5220
      5216      5215      5218      5221      5217      5215      5218      5219
      5217      5215      5218      5220      5217      5215      5218      5221
      5218      5221      5224      5225      5218      5221      5224      5226
      5218      5221      5224      5227      5219      5218      5221      5222
      5219      5218      5221      5223      5219      5218      5221      5224
      5220      5218      5221      5222      5220      5218      5221      5223
      5220      5218      5221      5224      5221      5224      5227      5228
      5221      5224      5227      5229      5221      5224      5227      5230
      5222      5221      5224      5225      5222      5221      5224      5226
      5222      5221      5224      5227      5223      5221      5224      5225
      5223      5221      5224      5226      5223      5221      5224      5227
      5224      5227      5230      5231      5224      5227      5230      5232
      5224      5227      5230      5233      5225      5224      5227      5228
      5225      5224      5227      5229      5225      5224      5227      5230
      5226      5224      5227      5228      5226      5224      5227      5229
      5226      5224      5227      5230      5227      5230      5233      5234
      5227      5230      5233      5235      5228      5227      5230      5231
      5228      5227      5230      5232      5228      5227      5230      5233
      5229      5227      5230      5231      5229      5227      5230      5232
      5229      5227      5230      5233      5230      5233      5235      5236
      5230      5233      5235      5237      5231      5230      5233      5234
      5231      5230      5233      5235      5232      5230      5233      5234
      5232      5230      5233      5235      5233      5235      5237      5238
      5233      5235      5237      5239      5233      5235      5237      5240
      5234      5233      5235      5236      5234      5233      5235      5237
      5235      5237      5240      5241      5235      5237      5240      5242
      5235      5237      5240      5243      5236      5235      5237      5238
      5236      5235      5237      5239      5236      5235      5237      5240
      5237      5240      5243      5244      5237      5240      5243      5245
      5237      5240      5243      5246      5238      5237      5240      5241
      5238      5237      5240      5242      5238      5237      5240      5243
      5239      5237      5240      5241      5239      5237      5240      5242
      5239      5237      5240      5243      5240      5243      5246      5247
      5240      5243      5246      5248      5240      5243      5246      5249
      5241      5240      5243      5244      5241      5240      5243      5245
      5241      5240      5243      5246      5242      5240      5243      5244
      5242      5240      5243      5245      5242      5240      5243      5246
      5243      5246      5249      5250      5243      5246      5249      5251
      5243      5246      5249      5252      5244      5243      5246      5247
      5244      5243      5246      5248      5244      5243      5246      5249
      5245      5243      5246      5247      5245      5243      5246      5248
      5245      5243      5246      5249      5246      5249      5252      5253
      5246      5249      5252      5254      5246      5249      5252      5255
      5247      5246      5249      5250      5247      5246      5249      5251
      5247      5246      5249      5252      5248      5246      5249      5250
      5248      5246      5249      5251      5248      5246      5249      5252
      5249      5252      5255      5256      5249      5252      5255      5257
      5249      5252      5255      5258      5250      5249      5252      5253
      5250      5249      5252      5254      5250      5249      5252      5255
      5251      5249      5252      5253      5251      5249      5252      5254
      5251      5249      5252      5255      5252      5255      5258      5259
      5252      5255      5258      5260      5252      5255      5258      5261
      5253      5252      5255      5256      5253      5252      5255      5257
      5253      5252      5255      5258      5254      5252      5255      5256
      5254      5252      5255      5257      5254      5252      5255      5258
      5256      5255      5258      5259      5256      5255      5258      5260
      5256      5255      5258      5261      5257      5255      5258      5259
      5257      5255      5258      5260      5257      5255      5258      5261
      5262      5265      5268      5269      5262      5265      5268      5270
      5262      5265      5268      5271      5263      5262      5265      5266
      5263      5262      5265      5267      5263      5262      5265      5268
      5264      5262      5265      5266      5264      5262      5265      5267
      5264      5262      5265      5268      5265      5268      5271      5272
      5265      5268      5271      5273      5265      5268      5271      5274
      5266      5265      5268      5269      5266      5265      5268      5270
      5266      5265      5268      5271      5267      5265      5268      5269
      5267      5265      5268      5270      5267      5265      5268      5271
      5268      5271      5274      5275      5268      5271      5274      5276
      5268      5271      5274      5277      5269      5268      5271      5272
      5269      5268      5271      5273      5269      5268      5271      5274
      5270      5268      5271      5272      5270      5268      5271      5273
      5270      5268      5271      5274      5271      5274      5277      5278
      5271      5274      5277      5279      5271      5274      5277      5280
      5272      5271      5274      5275      5272      5271      5274      5276
      5272      5271      5274      5277      5273      5271      5274      5275
      5273      5271      5274      5276      5273      5271      5274      5277
      5274      5277      5280      5281      5274      5277      5280      5282
      5274      5277      5280      5283      5275      5274      5277      5278
      5275      5274      5277      5279      5275      5274      5277      5280
      5276      5274      5277      5278      5276      5274      5277      5279
      5276      5274      5277      5280      5277      5280      5283      5284
      5277      5280      5283      5285      5277      5280      5283      5286
      5278      5277      5280      5281      5278      5277      5280      5282
      5278      5277      5280      5283      5279      5277      5280      5281
      5279      5277      5280      5282      5279      5277      5280      5283
      5280      5283      5286      5287      5280      5283      5286      5288
      5280      5283      5286      5289      5281      5280      5283      5284
      5281      5280      5283      5285      5281      5280      5283      5286
      5282      5280      5283      5284      5282      5280      5283      5285
      5282      5280      5283      5286      5283      5286      5289      5290
      5283      5286      5289      5291      5283      5286      5289      5292
      5284      5283      5286      5287      5284      5283      5286      5288
      5284      5283      5286      5289      5285      5283      5286      5287
      5285      5283      5286      5288      5285      5283      5286      5289
      5286      5289      5292      5293      5286      5289      5292      5294
      5286      5289      5292      5295      5287      5286      5289      5290
      5287      5286      5289      5291      5287      5286      5289      5292
      5288      5286      5289      5290      5288      5286      5289      5291
      5288      5286      5289      5292      5289      5292      5295      5296
      5289      5292      5295      5297      5289      5292      5295      5298
      5290      5289      5292      5293      5290      5289      5292      5294
      5290      5289      5292      5295      5291      5289      5292      5293
      5291      5289      5292      5294      5291      5289      5292      5295
      5292      5295      5298      5299      5292      5295      5298      5300
      5292      5295      5298      5301      5293      5292      5295      5296
      5293      5292      5295      5297      5293      5292      5295      5298
      5294      5292      5295      5296      5294      5292      5295      5297
      5294      5292      5295      5298      5295      5298      5301      5302
      5295      5298      5301      5303      5295      5298      5301      5304
      5296      5295      5298      5299      5296      5295      5298      5300
      5296      5295      5298      5301      5297      5295      5298      5299
      5297      5295      5298      5300      5297      5295      5298      5301
      5299      5298      5301      5302      5299      5298      5301      5303
      5299      5298      5301      5304      5300      5298      5301      5302
      5300      5298      5301      5303      5300      5298      5301      5304
      5305      5306      5321      5322      5305      5306      5321      5323
      5305      5306      5321      5327      5306      5305      5309      5310
      5306      5305      5309      5311      5306      5305      5309      5312
      5306      5305      5313      5314      5306      5305      5313      5315
      5306      5305      5313      5316      5306      5305      5317      5318
      5306      5305      5317      5319      5306      5305      5317      5320
      5306      5321      5327      5324      5307      5306      5305      5309
      5307      5306      5305      5313      5307      5306      5305      5317
      5307      5306      5321      5322      5307      5306      5321      5323
      5307      5306      5321      5327      5308      5306      5305      5309
      5308      5306      5305      5313      5308      5306      5305      5317
      5308      5306      5321      5322      5308      5306      5321      5323
      5308      5306      5321      5327      5309      5305      5306      5321
      5309      5305      5313      5314      5309      5305      5313      5315
      5309      5305      5313      5316      5309      5305      5317      5318
      5309      5305      5317      5319      5309      5305      5317      5320
      5310      5309      5305      5313      5310      5309      5305      5317
      5311      5309      5305      5313      5311      5309      5305      5317
      5312      5309      5305      5313      5312      5309      5305      5317
      5313      5305      5306      5321      5313      5305      5317      5318
      5313      5305      5317      5319      5313      5305      5317      5320
      5314      5313      5305      5317      5315      5313      5305      5317
      5316      5313      5305      5317      5317      5305      5306      5321
      5321      5327      5324      5325      5321      5327      5324      5326
      5321      5327      5324      5328      5322      5321      5327      5324
      5323      5321      5327      5324      5324      5328      5329      5330
      5324      5328      5329      5331      5324      5328      5329      5332
      5325      5324      5328      5329      5326      5324      5328      5329
      5327      5324      5328      5329      5328      5329      5332      5333
      5328      5329      5332      5334      5328      5329      5332      5340
      5329      5332      5334      5335      5329      5332      5340      5341
      5329      5332      5340      5342      5329      5332      5340      5343
      5330      5329      5332      5333      5330      5329      5332      5334
      5330      5329      5332      5340      5331      5329      5332      5333
      5331      5329      5332      5334      5331      5329      5332      5340
      5332      5334      5335      5336      5332      5334      5335      5337
      5332      5340      5343      5344      5333      5332      5334      5335
      5333      5332      5340      5341      5333      5332      5340      5342
      5333      5332      5340      5343      5334      5332      5340      5341
      5334      5332      5340      5342      5334      5332      5340      5343
      5334      5335      5337      5338      5334      5335      5337      5339
      5334      5335      5337      5349      5335      5334      5332      5340
      5335      5337      5349      5350      5335      5337      5349      5351
      5335      5337      5349      5352      5336      5335      5337      5338
      5336      5335      5337      5339      5336      5335      5337      5349
      5337      5349      5352      5353      5337      5349      5352      5354
      5337      5349      5352      5355      5338      5337      5349      5350
      5338      5337      5349      5351      5338      5337      5349      5352
      5339      5337      5349      5350      5339      5337      5349      5351
      5339      5337      5349      5352      5340      5343      5344      5345
      5340      5343      5344      5346      5341      5340      5343      5344
      5342      5340      5343      5344      5343      5344      5346      5347
      5343      5344      5346      5348      5343      5344      5346      5396
      5344      5346      5396      5397      5344      5346      5396      5398
      5344      5346      5396      5399      5345      5344      5346      5347
      5345      5344      5346      5348      5345      5344      5346      5396
      5346      5396      5399      5400      5346      5396      5399      5401
      5346      5396      5399      5402      5347      5346      5396      5397
      5347      5346      5396      5398      5347      5346      5396      5399
      5348      5346      5396      5397      5348      5346      5396      5398
      5348      5346      5396      5399      5349      5352      5355      5356
      5349      5352      5355      5357      5349      5352      5355      5358
      5350      5349      5352      5353      5350      5349      5352      5354
      5350      5349      5352      5355      5351      5349      5352      5353
      5351      5349      5352      5354      5351      5349      5352      5355
      5352      5355      5358      5359      5352      5355      5358      5360
      5352      5355      5358      5361      5353      5352      5355      5356
      5353      5352      5355      5357      5353      5352      5355      5358
      5354      5352      5355      5356      5354      5352      5355      5357
      5354      5352      5355      5358      5355      5358      5361      5362
      5355      5358      5361      5363      5355      5358      5361      5364
      5356      5355      5358      5359      5356      5355      5358      5360
      5356      5355      5358      5361      5357      5355      5358      5359
      5357      5355      5358      5360      5357      5355      5358      5361
      5358      5361      5364      5365      5358      5361      5364      5366
      5358      5361      5364      5367      5359      5358      5361      5362
      5359      5358      5361      5363      5359      5358      5361      5364
      5360      5358      5361      5362      5360      5358      5361      5363
      5360      5358      5361      5364      5361      5364      5367      5368
      5361      5364      5367      5369      5362      5361      5364      5365
      5362      5361      5364      5366      5362      5361      5364      5367
      5363      5361      5364      5365      5363      5361      5364      5366
      5363      5361      5364      5367      5364      5367      5369      5370
      5364      5367      5369      5371      5365      5364      5367      5368
      5365      5364      5367      5369      5366      5364      5367      5368
      5366      5364      5367      5369      5367      5369      5371      5372
      5367      5369      5371      5373      5367      5369      5371      5374
      5368      5367      5369      5370      5368      5367      5369      5371
      5369      5371      5374      5375      5369      5371      5374      5376
      5369      5371      5374      5377      5370      5369      5371      5372
      5370      5369      5371      5373      5370      5369      5371      5374
      5371      5374      5377      5378      5371      5374      5377      5379
      5371      5374      5377      5380      5372      5371      5374      5375
      5372      5371      5374      5376      5372      5371      5374      5377
      5373      5371      5374      5375      5373      5371      5374      5376
      5373      5371      5374      5377      5374      5377      5380      5381
      5374      5377      5380      5382      5374      5377      5380      5383
      5375      5374      5377      5378      5375      5374      5377      5379
      5375      5374      5377      5380      5376      5374      5377      5378
      5376      5374      5377      5379      5376      5374      5377      5380
      5377      5380      5383      5384      5377      5380      5383      5385
      5377      5380      5383      5386      5378      5377      5380      5381
      5378      5377      5380      5382      5378      5377      5380      5383
      5379      5377      5380      5381      5379      5377      5380      5382
      5379      5377      5380      5383      5380      5383      5386      5387
      5380      5383      5386      5388      5380      5383      5386      5389
      5381      5380      5383      5384      5381      5380      5383      5385
      5381      5380      5383      5386      5382      5380      5383      5384
      5382      5380      5383      5385      5382      5380      5383      5386
      5383      5386      5389      5390      5383      5386      5389      5391
      5383      5386      5389      5392      5384      5383      5386      5387
      5384      5383      5386      5388      5384      5383      5386      5389
      5385      5383      5386      5387      5385      5383      5386      5388
      5385      5383      5386      5389      5386      5389      5392      5393
      5386      5389      5392      5394      5386      5389      5392      5395
      5387      5386      5389      5390      5387      5386      5389      5391
      5387      5386      5389      5392      5388      5386      5389      5390
      5388      5386      5389      5391      5388      5386      5389      5392
      5390      5389      5392      5393      5390      5389      5392      5394
      5390      5389      5392      5395      5391      5389      5392      5393
      5391      5389      5392      5394      5391      5389      5392      5395
      5396      5399      5402      5403      5396      5399      5402      5404
      5396      5399      5402      5405      5397      5396      5399      5400
      5397      5396      5399      5401      5397      5396      5399      5402
      5398      5396      5399      5400      5398      5396      5399      5401
      5398      5396      5399      5402      5399      5402      5405      5406
      5399      5402      5405      5407      5399      5402      5405      5408
      5400      5399      5402      5403      5400      5399      5402      5404
      5400      5399      5402      5405      5401      5399      5402      5403
      5401      5399      5402      5404      5401      5399      5402      5405
      5402      5405      5408      5409      5402      5405      5408      5410
      5402      5405      5408      5411      5403      5402      5405      5406
      5403      5402      5405      5407      5403      5402      5405      5408
      5404      5402      5405      5406      5404      5402      5405      5407
      5404      5402      5405      5408      5405      5408      5411      5412
      5405      5408      5411      5413      5405      5408      5411      5414
      5406      5405      5408      5409      5406      5405      5408      5410
      5406      5405      5408      5411      5407      5405      5408      5409
      5407      5405      5408      5410      5407      5405      5408      5411
      5408      5411      5414      5415      5408      5411      5414      5416
      5408      5411      5414      5417      5409      5408      5411      5412
      5409      5408      5411      5413      5409      5408      5411      5414
      5410      5408      5411      5412      5410      5408      5411      5413
      5410      5408      5411      5414      5411      5414      5417      5418
      5411      5414      5417      5419      5411      5414      5417      5420
      5412      5411      5414      5415      5412      5411      5414      5416
      5412      5411      5414      5417      5413      5411      5414      5415
      5413      5411      5414      5416      5413      5411      5414      5417
      5414      5417      5420      5421      5414      5417      5420      5422
      5414      5417      5420      5423      5415      5414      5417      5418
      5415      5414      5417      5419      5415      5414      5417      5420
      5416      5414      5417      5418      5416      5414      5417      5419
      5416      5414      5417      5420      5417      5420      5423      5424
      5417      5420      5423      5425      5417      5420      5423      5426
      5418      5417      5420      5421      5418      5417      5420      5422
      5418      5417      5420      5423      5419      5417      5420      5421
      5419      5417      5420      5422      5419      5417      5420      5423
      5420      5423      5426      5427      5420      5423      5426      5428
      5420      5423      5426      5429      5421      5420      5423      5424
      5421      5420      5423      5425      5421      5420      5423      5426
      5422      5420      5423      5424      5422      5420      5423      5425
      5422      5420      5423      5426      5423      5426      5429      5430
      5423      5426      5429      5431      5423      5426      5429      5432
      5424      5423      5426      5427      5424      5423      5426      5428
      5424      5423      5426      5429      5425      5423      5426      5427
      5425      5423      5426      5428      5425      5423      5426      5429
      5426      5429      5432      5433      5426      5429      5432      5434
      5426      5429      5432      5435      5427      5426      5429      5430
      5427      5426      5429      5431      5427      5426      5429      5432
      5428      5426      5429      5430      5428      5426      5429      5431
      5428      5426      5429      5432      5429      5432      5435      5436
      5429      5432      5435      5437      5429      5432      5435      5438
      5430      5429      5432      5433      5430      5429      5432      5434
      5430      5429      5432      5435      5431      5429      5432      5433
      5431      5429      5432      5434      5431      5429      5432      5435
      5433      5432      5435      5436      5433      5432      5435      5437
      5433      5432      5435      5438      5434      5432      5435      5436
      5434      5432      5435      5437      5434      5432      5435      5438
      5439      5440      5455      5456      5439      5440      5455      5457
      5439      5440      5455      5461      5440      5439      5443      5444
      5440      5439      5443      5445      5440      5439      5443      5446
      5440      5439      5447      5448      5440      5439      5447      5449
      5440      5439      5447      5450      5440      5439      5451      5452
      5440      5439      5451      5453      5440      5439      5451      5454
      5440      5455      5461      5458      5441      5440      5439      5443
      5441      5440      5439      5447      5441      5440      5439      5451
      5441      5440      5455      5456      5441      5440      5455      5457
      5441      5440      5455      5461      5442      5440      5439      5443
      5442      5440      5439      5447      5442      5440      5439      5451
      5442      5440      5455      5456      5442      5440      5455      5457
      5442      5440      5455      5461      5443      5439      5440      5455
      5443      5439      5447      5448      5443      5439      5447      5449
      5443      5439      5447      5450      5443      5439      5451      5452
      5443      5439      5451      5453      5443      5439      5451      5454
      5444      5443      5439      5447      5444      5443      5439      5451
      5445      5443      5439      5447      5445      5443      5439      5451
      5446      5443      5439      5447      5446      5443      5439      5451
      5447      5439      5440      5455      5447      5439      5451      5452
      5447      5439      5451      5453      5447      5439      5451      5454
      5448      5447      5439      5451      5449      5447      5439      5451
      5450      5447      5439      5451      5451      5439      5440      5455
      5455      5461      5458      5459      5455      5461      5458      5460
      5455      5461      5458      5462      5456      5455      5461      5458
      5457      5455      5461      5458      5458      5462      5463      5464
      5458      5462      5463      5465      5458      5462      5463      5466
      5459      5458      5462      5463      5460      5458      5462      5463
      5461      5458      5462      5463      5462      5463      5466      5467
      5462      5463      5466      5468      5462      5463      5466      5474
      5463      5466      5468      5469      5463      5466      5474      5475
      5463      5466      5474      5476      5463      5466      5474      5477
      5464      5463      5466      5467      5464      5463      5466      5468
      5464      5463      5466      5474      5465      5463      5466      5467
      5465      5463      5466      5468      5465      5463      5466      5474
      5466      5468      5469      5470      5466      5468      5469      5471
      5466      5474      5477      5478      5467      5466      5468      5469
      5467      5466      5474      5475      5467      5466      5474      5476
      5467      5466      5474      5477      5468      5466      5474      5475
      5468      5466      5474      5476      5468      5466      5474      5477
      5468      5469      5471      5472      5468      5469      5471      5473
      5468      5469      5471      5483      5469      5468      5466      5474
      5469      5471      5483      5484      5469      5471      5483      5485
      5469      5471      5483      5486      5470      5469      5471      5472
      5470      5469      5471      5473      5470      5469      5471      5483
      5471      5483      5486      5487      5471      5483      5486      5488
      5471      5483      5486      5489      5472      5471      5483      5484
      5472      5471      5483      5485      5472      5471      5483      5486
      5473      5471      5483      5484      5473      5471      5483      5485
      5473      5471      5483      5486      5474      5477      5478      5479
      5474      5477      5478      5480      5475      5474      5477      5478
      5476      5474      5477      5478      5477      5478      5480      5481
      5477      5478      5480      5482      5477      5478      5480      5530
      5478      5480      5530      5531      5478      5480      5530      5532
      5478      5480      5530      5533      5479      5478      5480      5481
      5479      5478      5480      5482      5479      5478      5480      5530
      5480      5530      5533      5534      5480      5530      5533      5535
      5480      5530      5533      5536      5481      5480      5530      5531
      5481      5480      5530      5532      5481      5480      5530      5533
      5482      5480      5530      5531      5482      5480      5530      5532
      5482      5480      5530      5533      5483      5486      5489      5490
      5483      5486      5489      5491      5483      5486      5489      5492
      5484      5483      5486      5487      5484      5483      5486      5488
      5484      5483      5486      5489      5485      5483      5486      5487
      5485      5483      5486      5488      5485      5483      5486      5489
      5486      5489      5492      5493      5486      5489      5492      5494
      5486      5489      5492      5495      5487      5486      5489      5490
      5487      5486      5489      5491      5487      5486      5489      5492
      5488      5486      5489      5490      5488      5486      5489      5491
      5488      5486      5489      5492      5489      5492      5495      5496
      5489      5492      5495      5497      5489      5492      5495      5498
      5490      5489      5492      5493      5490      5489      5492      5494
      5490      5489      5492      5495      5491      5489      5492      5493
      5491      5489      5492      5494      5491      5489      5492      5495
      5492      5495      5498      5499      5492      5495      5498      5500
      5492      5495      5498      5501      5493      5492      5495      5496
      5493      5492      5495      5497      5493      5492      5495      5498
      5494      5492      5495      5496      5494      5492      5495      5497
      5494      5492      5495      5498      5495      5498      5501      5502
      5495      5498      5501      5503      5496      5495      5498      5499
      5496      5495      5498      5500      5496      5495      5498      5501
      5497      5495      5498      5499      5497      5495      5498      5500
      5497      5495      5498      5501      5498      5501      5503      5504
      5498      5501      5503      5505      5499      5498      5501      5502
      5499      5498      5501      5503      5500      5498      5501      5502
      5500      5498      5501      5503      5501      5503      5505      5506
      5501      5503      5505      5507      5501      5503      5505      5508
      5502      5501      5503      5504      5502      5501      5503      5505
      5503      5505      5508      5509      5503      5505      5508      5510
      5503      5505      5508      5511      5504      5503      5505      5506
      5504      5503      5505      5507      5504      5503      5505      5508
      5505      5508      5511      5512      5505      5508      5511      5513
      5505      5508      5511      5514      5506      5505      5508      5509
      5506      5505      5508      5510      5506      5505      5508      5511
      5507      5505      5508      5509      5507      5505      5508      5510
      5507      5505      5508      5511      5508      5511      5514      5515
      5508      5511      5514      5516      5508      5511      5514      5517
      5509      5508      5511      5512      5509      5508      5511      5513
      5509      5508      5511      5514      5510      5508      5511      5512
      5510      5508      5511      5513      5510      5508      5511      5514
      5511      5514      5517      5518      5511      5514      5517      5519
      5511      5514      5517      5520      5512      5511      5514      5515
      5512      5511      5514      5516      5512      5511      5514      5517
      5513      5511      5514      5515      5513      5511      5514      5516
      5513      5511      5514      5517      5514      5517      5520      5521
      5514      5517      5520      5522      5514      5517      5520      5523
      5515      5514      5517      5518      5515      5514      5517      5519
      5515      5514      5517      5520      5516      5514      5517      5518
      5516      5514      5517      5519      5516      5514      5517      5520
      5517      5520      5523      5524      5517      5520      5523      5525
      5517      5520      5523      5526      5518      5517      5520      5521
      5518      5517      5520      5522      5518      5517      5520      5523
      5519      5517      5520      5521      5519      5517      5520      5522
      5519      5517      5520      5523      5520      5523      5526      5527
      5520      5523      5526      5528      5520      5523      5526      5529
      5521      5520      5523      5524      5521      5520      5523      5525
      5521      5520      5523      5526      5522      5520      5523      5524
      5522      5520      5523      5525      5522      5520      5523      5526
      5524      5523      5526      5527      5524      5523      5526      5528
      5524      5523      5526      5529      5525      5523      5526      5527
      5525      5523      5526      5528      5525      5523      5526      5529
      5530      5533      5536      5537      5530      5533      5536      5538
      5530      5533      5536      5539      5531      5530      5533      5534
      5531      5530      5533      5535      5531      5530      5533      5536
      5532      5530      5533      5534      5532      5530      5533      5535
      5532      5530      5533      5536      5533      5536      5539      5540
      5533      5536      5539      5541      5533      5536      5539      5542
      5534      5533      5536      5537      5534      5533      5536      5538
      5534      5533      5536      5539      5535      5533      5536      5537
      5535      5533      5536      5538      5535      5533      5536      5539
      5536      5539      5542      5543      5536      5539      5542      5544
      5536      5539      5542      5545      5537      5536      5539      5540
      5537      5536      5539      5541      5537      5536      5539      5542
      5538      5536      5539      5540      5538      5536      5539      5541
      5538      5536      5539      5542      5539      5542      5545      5546
      5539      5542      5545      5547      5539      5542      5545      5548
      5540      5539      5542      5543      5540      5539      5542      5544
      5540      5539      5542      5545      5541      5539      5542      5543
      5541      5539      5542      5544      5541      5539      5542      5545
      5542      5545      5548      5549      5542      5545      5548      5550
      5542      5545      5548      5551      5543      5542      5545      5546
      5543      5542      5545      5547      5543      5542      5545      5548
      5544      5542      5545      5546      5544      5542      5545      5547
      5544      5542      5545      5548      5545      5548      5551      5552
      5545      5548      5551      5553      5545      5548      5551      5554
      5546      5545      5548      5549      5546      5545      5548      5550
      5546      5545      5548      5551      5547      5545      5548      5549
      5547      5545      5548      5550      5547      5545      5548      5551
      5548      5551      5554      5555      5548      5551      5554      5556
      5548      5551      5554      5557      5549      5548      5551      5552
      5549      5548      5551      5553      5549      5548      5551      5554
      5550      5548      5551      5552      5550      5548      5551      5553
      5550      5548      5551      5554      5551      5554      5557      5558
      5551      5554      5557      5559      5551      5554      5557      5560
      5552      5551      5554      5555      5552      5551      5554      5556
      5552      5551      5554      5557      5553      5551      5554      5555
      5553      5551      5554      5556      5553      5551      5554      5557
      5554      5557      5560      5561      5554      5557      5560      5562
      5554      5557      5560      5563      5555      5554      5557      5558
      5555      5554      5557      5559      5555      5554      5557      5560
      5556      5554      5557      5558      5556      5554      5557      5559
      5556      5554      5557      5560      5557      5560      5563      5564
      5557      5560      5563      5565      5557      5560      5563      5566
      5558      5557      5560      5561      5558      5557      5560      5562
      5558      5557      5560      5563      5559      5557      5560      5561
      5559      5557      5560      5562      5559      5557      5560      5563
      5560      5563      5566      5567      5560      5563      5566      5568
      5560      5563      5566      5569      5561      5560      5563      5564
      5561      5560      5563      5565      5561      5560      5563      5566
      5562      5560      5563      5564      5562      5560      5563      5565
      5562      5560      5563      5566      5563      5566      5569      5570
      5563      5566      5569      5571      5563      5566      5569      5572
      5564      5563      5566      5567      5564      5563      5566      5568
      5564      5563      5566      5569      5565      5563      5566      5567
      5565      5563      5566      5568      5565      5563      5566      5569
      5567      5566      5569      5570      5567      5566      5569      5571
      5567      5566      5569      5572      5568      5566      5569      5570
      5568      5566      5569      5571      5568      5566      5569      5572
      5573      5574      5589      5590      5573      5574      5589      5591
      5573      5574      5589      5595      5574      5573      5577      5578
      5574      5573      5577      5579      5574      5573      5577      5580
      5574      5573      5581      5582      5574      5573      5581      5583
      5574      5573      5581      5584      5574      5573      5585      5586
      5574      5573      5585      5587      5574      5573      5585      5588
      5574      5589      5595      5592      5575      5574      5573      5577
      5575      5574      5573      5581      5575      5574      5573      5585
      5575      5574      5589      5590      5575      5574      5589      5591
      5575      5574      5589      5595      5576      5574      5573      5577
      5576      5574      5573      5581      5576      5574      5573      5585
      5576      5574      5589      5590      5576      5574      5589      5591
      5576      5574      5589      5595      5577      5573      5574      5589
      5577      5573      5581      5582      5577      5573      5581      5583
      5577      5573      5581      5584      5577      5573      5585      5586
      5577      5573      5585      5587      5577      5573      5585      5588
      5578      5577      5573      5581      5578      5577      5573      5585
      5579      5577      5573      5581      5579      5577      5573      5585
      5580      5577      5573      5581      5580      5577      5573      5585
      5581      5573      5574      5589      5581      5573      5585      5586
      5581      5573      5585      5587      5581      5573      5585      5588
      5582      5581      5573      5585      5583      5581      5573      5585
      5584      5581      5573      5585      5585      5573      5574      5589
      5589      5595      5592      5593      5589      5595      5592      5594
      5589      5595      5592      5596      5590      5589      5595      5592
      5591      5589      5595      5592      5592      5596      5597      5598
      5592      5596      5597      5599      5592      5596      5597      5600
      5593      5592      5596      5597      5594      5592      5596      5597
      5595      5592      5596      5597      5596      5597      5600      5601
      5596      5597      5600      5602      5596      5597      5600      5608
      5597      5600      5602      5603      5597      5600      5608      5609
      5597      5600      5608      5610      5597      5600      5608      5611
      5598      5597      5600      5601      5598      5597      5600      5602
      5598      5597      5600      5608      5599      5597      5600      5601
      5599      5597      5600      5602      5599      5597      5600      5608
      5600      5602      5603      5604      5600      5602      5603      5605
      5600      5608      5611      5612      5601      5600      5602      5603
      5601      5600      5608      5609      5601      5600      5608      5610
      5601      5600      5608      5611      5602      5600      5608      5609
      5602      5600      5608      5610      5602      5600      5608      5611
      5602      5603      5605      5606      5602      5603      5605      5607
      5602      5603      5605      5617      5603      5602      5600      5608
      5603      5605      5617      5618      5603      5605      5617      5619
      5603      5605      5617      5620      5604      5603      5605      5606
      5604      5603      5605      5607      5604      5603      5605      5617
      5605      5617      5620      5621      5605      5617      5620      5622
      5605      5617      5620      5623      5606      5605      5617      5618
      5606      5605      5617      5619      5606      5605      5617      5620
      5607      5605      5617      5618      5607      5605      5617      5619
      5607      5605      5617      5620      5608      5611      5612      5613
      5608      5611      5612      5614      5609      5608      5611      5612
      5610      5608      5611      5612      5611      5612      5614      5615
      5611      5612      5614      5616      5611      5612      5614      5664
      5612      5614      5664      5665      5612      5614      5664      5666
      5612      5614      5664      5667      5613      5612      5614      5615
      5613      5612      5614      5616      5613      5612      5614      5664
      5614      5664      5667      5668      5614      5664      5667      5669
      5614      5664      5667      5670      5615      5614      5664      5665
      5615      5614      5664      5666      5615      5614      5664      5667
      5616      5614      5664      5665      5616      5614      5664      5666
      5616      5614      5664      5667      5617      5620      5623      5624
      5617      5620      5623      5625      5617      5620      5623      5626
      5618      5617      5620      5621      5618      5617      5620      5622
      5618      5617      5620      5623      5619      5617      5620      5621
      5619      5617      5620      5622      5619      5617      5620      5623
      5620      5623      5626      5627      5620      5623      5626      5628
      5620      5623      5626      5629      5621      5620      5623      5624
      5621      5620      5623      5625      5621      5620      5623      5626
      5622      5620      5623      5624      5622      5620      5623      5625
      5622      5620      5623      5626      5623      5626      5629      5630
      5623      5626      5629      5631      5623      5626      5629      5632
      5624      5623      5626      5627      5624      5623      5626      5628
      5624      5623      5626      5629      5625      5623      5626      5627
      5625      5623      5626      5628      5625      5623      5626      5629
      5626      5629      5632      5633      5626      5629      5632      5634
      5626      5629      5632      5635      5627      5626      5629      5630
      5627      5626      5629      5631      5627      5626      5629      5632
      5628      5626      5629      5630      5628      5626      5629      5631
      5628      5626      5629      5632      5629      5632      5635      5636
      5629      5632      5635      5637      5630      5629      5632      5633
      5630      5629      5632      5634      5630      5629      5632      5635
      5631      5629      5632      5633      5631      5629      5632      5634
      5631      5629      5632      5635      5632      5635      5637      5638
      5632      5635      5637      5639      5633      5632      5635      5636
      5633      5632      5635      5637      5634      5632      5635      5636
      5634      5632      5635      5637      5635      5637      5639      5640
      5635      5637      5639      5641      5635      5637      5639      5642
      5636      5635      5637      5638      5636      5635      5637      5639
      5637      5639      5642      5643      5637      5639      5642      5644
      5637      5639      5642      5645      5638      5637      5639      5640
      5638      5637      5639      5641      5638      5637      5639      5642
      5639      5642      5645      5646      5639      5642      5645      5647
      5639      5642      5645      5648      5640      5639      5642      5643
      5640      5639      5642      5644      5640      5639      5642      5645
      5641      5639      5642      5643      5641      5639      5642      5644
      5641      5639      5642      5645      5642      5645      5648      5649
      5642      5645      5648      5650      5642      5645      5648      5651
      5643      5642      5645      5646      5643      5642      5645      5647
      5643      5642      5645      5648      5644      5642      5645      5646
      5644      5642      5645      5647      5644      5642      5645      5648
      5645      5648      5651      5652      5645      5648      5651      5653
      5645      5648      5651      5654      5646      5645      5648      5649
      5646      5645      5648      5650      5646      5645      5648      5651
      5647      5645      5648      5649      5647      5645      5648      5650
      5647      5645      5648      5651      5648      5651      5654      5655
      5648      5651      5654      5656      5648      5651      5654      5657
      5649      5648      5651      5652      5649      5648      5651      5653
      5649      5648      5651      5654      5650      5648      5651      5652
      5650      5648      5651      5653      5650      5648      5651      5654
      5651      5654      5657      5658      5651      5654      5657      5659
      5651      5654      5657      5660      5652      5651      5654      5655
      5652      5651      5654      5656      5652      5651      5654      5657
      5653      5651      5654      5655      5653      5651      5654      5656
      5653      5651      5654      5657      5654      5657      5660      5661
      5654      5657      5660      5662      5654      5657      5660      5663
      5655      5654      5657      5658      5655      5654      5657      5659
      5655      5654      5657      5660      5656      5654      5657      5658
      5656      5654      5657      5659      5656      5654      5657      5660
      5658      5657      5660      5661      5658      5657      5660      5662
      5658      5657      5660      5663      5659      5657      5660      5661
      5659      5657      5660      5662      5659      5657      5660      5663
      5664      5667      5670      5671      5664      5667      5670      5672
      5664      5667      5670      5673      5665      5664      5667      5668
      5665      5664      5667      5669      5665      5664      5667      5670
      5666      5664      5667      5668      5666      5664      5667      5669
      5666      5664      5667      5670      5667      5670      5673      5674
      5667      5670      5673      5675      5667      5670      5673      5676
      5668      5667      5670      5671      5668      5667      5670      5672
      5668      5667      5670      5673      5669      5667      5670      5671
      5669      5667      5670      5672      5669      5667      5670      5673
      5670      5673      5676      5677      5670      5673      5676      5678
      5670      5673      5676      5679      5671      5670      5673      5674
      5671      5670      5673      5675      5671      5670      5673      5676
      5672      5670      5673      5674      5672      5670      5673      5675
      5672      5670      5673      5676      5673      5676      5679      5680
      5673      5676      5679      5681      5673      5676      5679      5682
      5674      5673      5676      5677      5674      5673      5676      5678
      5674      5673      5676      5679      5675      5673      5676      5677
      5675      5673      5676      5678      5675      5673      5676      5679
      5676      5679      5682      5683      5676      5679      5682      5684
      5676      5679      5682      5685      5677      5676      5679      5680
      5677      5676      5679      5681      5677      5676      5679      5682
      5678      5676      5679      5680      5678      5676      5679      5681
      5678      5676      5679      5682      5679      5682      5685      5686
      5679      5682      5685      5687      5679      5682      5685      5688
      5680      5679      5682      5683      5680      5679      5682      5684
      5680      5679      5682      5685      5681      5679      5682      5683
      5681      5679      5682      5684      5681      5679      5682      5685
      5682      5685      5688      5689      5682      5685      5688      5690
      5682      5685      5688      5691      5683      5682      5685      5686
      5683      5682      5685      5687      5683      5682      5685      5688
      5684      5682      5685      5686      5684      5682      5685      5687
      5684      5682      5685      5688      5685      5688      5691      5692
      5685      5688      5691      5693      5685      5688      5691      5694
      5686      5685      5688      5689      5686      5685      5688      5690
      5686      5685      5688      5691      5687      5685      5688      5689
      5687      5685      5688      5690      5687      5685      5688      5691
      5688      5691      5694      5695      5688      5691      5694      5696
      5688      5691      5694      5697      5689      5688      5691      5692
      5689      5688      5691      5693      5689      5688      5691      5694
      5690      5688      5691      5692      5690      5688      5691      5693
      5690      5688      5691      5694      5691      5694      5697      5698
      5691      5694      5697      5699      5691      5694      5697      5700
      5692      5691      5694      5695      5692      5691      5694      5696
      5692      5691      5694      5697      5693      5691      5694      5695
      5693      5691      5694      5696      5693      5691      5694      5697
      5694      5697      5700      5701      5694      5697      5700      5702
      5694      5697      5700      5703      5695      5694      5697      5698
      5695      5694      5697      5699      5695      5694      5697      5700
      5696      5694      5697      5698      5696      5694      5697      5699
      5696      5694      5697      5700      5697      5700      5703      5704
      5697      5700      5703      5705      5697      5700      5703      5706
      5698      5697      5700      5701      5698      5697      5700      5702
      5698      5697      5700      5703      5699      5697      5700      5701
      5699      5697      5700      5702      5699      5697      5700      5703
      5701      5700      5703      5704      5701      5700      5703      5705
      5701      5700      5703      5706      5702      5700      5703      5704
      5702      5700      5703      5705      5702      5700      5703      5706
      5707      5708      5723      5724      5707      5708      5723      5725
      5707      5708      5723      5729      5708      5707      5711      5712
      5708      5707      5711      5713      5708      5707      5711      5714
      5708      5707      5715      5716      5708      5707      5715      5717
      5708      5707      5715      5718      5708      5707      5719      5720
      5708      5707      5719      5721      5708      5707      5719      5722
      5708      5723      5729      5726      5709      5708      5707      5711
      5709      5708      5707      5715      5709      5708      5707      5719
      5709      5708      5723      5724      5709      5708      5723      5725
      5709      5708      5723      5729      5710      5708      5707      5711
      5710      5708      5707      5715      5710      5708      5707      5719
      5710      5708      5723      5724      5710      5708      5723      5725
      5710      5708      5723      5729      5711      5707      5708      5723
      5711      5707      5715      5716      5711      5707      5715      5717
      5711      5707      5715      5718      5711      5707      5719      5720
      5711      5707      5719      5721      5711      5707      5719      5722
      5712      5711      5707      5715      5712      5711      5707      5719
      5713      5711      5707      5715      5713      5711      5707      5719
      5714      5711      5707      5715      5714      5711      5707      5719
      5715      5707      5708      5723      5715      5707      5719      5720
      5715      5707      5719      5721      5715      5707      5719      5722
      5716      5715      5707      5719      5717      5715      5707      5719
      5718      5715      5707      5719      5719      5707      5708      5723
      5723      5729      5726      5727      5723      5729      5726      5728
      5723      5729      5726      5730      5724      5723      5729      5726
      5725      5723      5729      5726      5726      5730      5731      5732
      5726      5730      5731      5733      5726      5730      5731      5734
      5727      5726      5730      5731      5728      5726      5730      5731
      5729      5726      5730      5731      5730      5731      5734      5735
      5730      5731      5734      5736      5730      5731      5734      5742
      5731      5734      5736      5737      5731      5734      5742      5743
      5731      5734      5742      5744      5731      5734      5742      5745
      5732      5731      5734      5735      5732      5731      5734      5736
      5732      5731      5734      5742      5733      5731      5734      5735
      5733      5731      5734      5736      5733      5731      5734      5742
      5734      5736      5737      5738      5734      5736      5737      5739
      5734      5742      5745      5746      5735      5734      5736      5737
      5735      5734      5742      5743      5735      5734      5742      5744
      5735      5734      5742      5745      5736      5734      5742      5743
      5736      5734      5742      5744      5736      5734      5742      5745
      5736      5737      5739      5740      5736      5737      5739      5741
      5736      5737      5739      5751      5737      5736      5734      5742
      5737      5739      5751      5752      5737      5739      5751      5753
      5737      5739      5751      5754      5738      5737      5739      5740
      5738      5737      5739      5741      5738      5737      5739      5751
      5739      5751      5754      5755      5739      5751      5754      5756
      5739      5751      5754      5757      5740      5739      5751      5752
      5740      5739      5751      5753      5740      5739      5751      5754
      5741      5739      5751      5752      5741      5739      5751      5753
      5741      5739      5751      5754      5742      5745      5746      5747
      5742      5745      5746      5748      5743      5742      5745      5746
      5744      5742      5745      5746      5745      5746      5748      5749
      5745      5746      5748      5750      5745      5746      5748      5798
      5746      5748      5798      5799      5746      5748      5798      5800
      5746      5748      5798      5801      5747      5746      5748      5749
      5747      5746      5748      5750      5747      5746      5748      5798
      5748      5798      5801      5802      5748      5798      5801      5803
      5748      5798      5801      5804      5749      5748      5798      5799
      5749      5748      5798      5800      5749      5748      5798      5801
      5750      5748      5798      5799      5750      5748      5798      5800
      5750      5748      5798      5801      5751      5754      5757      5758
      5751      5754      5757      5759      5751      5754      5757      5760
      5752      5751      5754      5755      5752      5751      5754      5756
      5752      5751      5754      5757      5753      5751      5754      5755
      5753      5751      5754      5756      5753      5751      5754      5757
      5754      5757      5760      5761      5754      5757      5760      5762
      5754      5757      5760      5763      5755      5754      5757      5758
      5755      5754      5757      5759      5755      5754      5757      5760
      5756      5754      5757      5758      5756      5754      5757      5759
      5756      5754      5757      5760      5757      5760      5763      5764
      5757      5760      5763      5765      5757      5760      5763      5766
      5758      5757      5760      5761      5758      5757      5760      5762
      5758      5757      5760      5763      5759      5757      5760      5761
      5759      5757      5760      5762      5759      5757      5760      5763
      5760      5763      5766      5767      5760      5763      5766      5768
      5760      5763      5766      5769      5761      5760      5763      5764
      5761      5760      5763      5765      5761      5760      5763      5766
      5762      5760      5763      5764      5762      5760      5763      5765
      5762      5760      5763      5766      5763      5766      5769      5770
      5763      5766      5769      5771      5764      5763      5766      5767
      5764      5763      5766      5768      5764      5763      5766      5769
      5765      5763      5766      5767      5765      5763      5766      5768
      5765      5763      5766      5769      5766      5769      5771      5772
      5766      5769      5771      5773      5767      5766      5769      5770
      5767      5766      5769      5771      5768      5766      5769      5770
      5768      5766      5769      5771      5769      5771      5773      5774
      5769      5771      5773      5775      5769      5771      5773      5776
      5770      5769      5771      5772      5770      5769      5771      5773
      5771      5773      5776      5777      5771      5773      5776      5778
      5771      5773      5776      5779      5772      5771      5773      5774
      5772      5771      5773      5775      5772      5771      5773      5776
      5773      5776      5779      5780      5773      5776      5779      5781
      5773      5776      5779      5782      5774      5773      5776      5777
      5774      5773      5776      5778      5774      5773      5776      5779
      5775      5773      5776      5777      5775      5773      5776      5778
      5775      5773      5776      5779      5776      5779      5782      5783
      5776      5779      5782      5784      5776      5779      5782      5785
      5777      5776      5779      5780      5777      5776      5779      5781
      5777      5776      5779      5782      5778      5776      5779      5780
      5778      5776      5779      5781      5778      5776      5779      5782
      5779      5782      5785      5786      5779      5782      5785      5787
      5779      5782      5785      5788      5780      5779      5782      5783
      5780      5779      5782      5784      5780      5779      5782      5785
      5781      5779      5782      5783      5781      5779      5782      5784
      5781      5779      5782      5785      5782      5785      5788      5789
      5782      5785      5788      5790      5782      5785      5788      5791
      5783      5782      5785      5786      5783      5782      5785      5787
      5783      5782      5785      5788      5784      5782      5785      5786
      5784      5782      5785      5787      5784      5782      5785      5788
      5785      5788      5791      5792      5785      5788      5791      5793
      5785      5788      5791      5794      5786      5785      5788      5789
      5786      5785      5788      5790      5786      5785      5788      5791
      5787      5785      5788      5789      5787      5785      5788      5790
      5787      5785      5788      5791      5788      5791      5794      5795
      5788      5791      5794      5796      5788      5791      5794      5797
      5789      5788      5791      5792      5789      5788      5791      5793
      5789      5788      5791      5794      5790      5788      5791      5792
      5790      5788      5791      5793      5790      5788      5791      5794
      5792      5791      5794      5795      5792      5791      5794      5796
      5792      5791      5794      5797      5793      5791      5794      5795
      5793      5791      5794      5796      5793      5791      5794      5797
      5798      5801      5804      5805      5798      5801      5804      5806
      5798      5801      5804      5807      5799      5798      5801      5802
      5799      5798      5801      5803      5799      5798      5801      5804
      5800      5798      5801      5802      5800      5798      5801      5803
      5800      5798      5801      5804      5801      5804      5807      5808
      5801      5804      5807      5809      5801      5804      5807      5810
      5802      5801      5804      5805      5802      5801      5804      5806
      5802      5801      5804      5807      5803      5801      5804      5805
      5803      5801      5804      5806      5803      5801      5804      5807
      5804      5807      5810      5811      5804      5807      5810      5812
      5804      5807      5810      5813      5805      5804      5807      5808
      5805      5804      5807      5809      5805      5804      5807      5810
      5806      5804      5807      5808      5806      5804      5807      5809
      5806      5804      5807      5810      5807      5810      5813      5814
      5807      5810      5813      5815      5807      5810      5813      5816
      5808      5807      5810      5811      5808      5807      5810      5812
      5808      5807      5810      5813      5809      5807      5810      5811
      5809      5807      5810      5812      5809      5807      5810      5813
      5810      5813      5816      5817      5810      5813      5816      5818
      5810      5813      5816      5819      5811      5810      5813      5814
      5811      5810      5813      5815      5811      5810      5813      5816
      5812      5810      5813      5814      5812      5810      5813      5815
      5812      5810      5813      5816      5813      5816      5819      5820
      5813      5816      5819      5821      5813      5816      5819      5822
      5814      5813      5816      5817      5814      5813      5816      5818
      5814      5813      5816      5819      5815      5813      5816      5817
      5815      5813      5816      5818      5815      5813      5816      5819
      5816      5819      5822      5823      5816      5819      5822      5824
      5816      5819      5822      5825      5817      5816      5819      5820
      5817      5816      5819      5821      5817      5816      5819      5822
      5818      5816      5819      5820      5818      5816      5819      5821
      5818      5816      5819      5822      5819      5822      5825      5826
      5819      5822      5825      5827      5819      5822      5825      5828
      5820      5819      5822      5823      5820      5819      5822      5824
      5820      5819      5822      5825      5821      5819      5822      5823
      5821      5819      5822      5824      5821      5819      5822      5825
      5822      5825      5828      5829      5822      5825      5828      5830
      5822      5825      5828      5831      5823      5822      5825      5826
      5823      5822      5825      5827      5823      5822      5825      5828
      5824      5822      5825      5826      5824      5822      5825      5827
      5824      5822      5825      5828      5825      5828      5831      5832
      5825      5828      5831      5833      5825      5828      5831      5834
      5826      5825      5828      5829      5826      5825      5828      5830
      5826      5825      5828      5831      5827      5825      5828      5829
      5827      5825      5828      5830      5827      5825      5828      5831
      5828      5831      5834      5835      5828      5831      5834      5836
      5828      5831      5834      5837      5829      5828      5831      5832
      5829      5828      5831      5833      5829      5828      5831      5834
      5830      5828      5831      5832      5830      5828      5831      5833
      5830      5828      5831      5834      5831      5834      5837      5838
      5831      5834      5837      5839      5831      5834      5837      5840
      5832      5831      5834      5835      5832      5831      5834      5836
      5832      5831      5834      5837      5833      5831      5834      5835
      5833      5831      5834      5836      5833      5831      5834      5837
      5835      5834      5837      5838      5835      5834      5837      5839
      5835      5834      5837      5840      5836      5834      5837      5838
      5836      5834      5837      5839      5836      5834      5837      5840
      5841      5842      5857      5858      5841      5842      5857      5859
      5841      5842      5857      5863      5842      5841      5845      5846
      5842      5841      5845      5847      5842      5841      5845      5848
      5842      5841      5849      5850      5842      5841      5849      5851
      5842      5841      5849      5852      5842      5841      5853      5854
      5842      5841      5853      5855      5842      5841      5853      5856
      5842      5857      5863      5860      5843      5842      5841      5845
      5843      5842      5841      5849      5843      5842      5841      5853
      5843      5842      5857      5858      5843      5842      5857      5859
      5843      5842      5857      5863      5844      5842      5841      5845
      5844      5842      5841      5849      5844      5842      5841      5853
      5844      5842      5857      5858      5844      5842      5857      5859
      5844      5842      5857      5863      5845      5841      5842      5857
      5845      5841      5849      5850      5845      5841      5849      5851
      5845      5841      5849      5852      5845      5841      5853      5854
      5845      5841      5853      5855      5845      5841      5853      5856
      5846      5845      5841      5849      5846      5845      5841      5853
      5847      5845      5841      5849      5847      5845      5841      5853
      5848      5845      5841      5849      5848      5845      5841      5853
      5849      5841      5842      5857      5849      5841      5853      5854
      5849      5841      5853      5855      5849      5841      5853      5856
      5850      5849      5841      5853      5851      5849      5841      5853
      5852      5849      5841      5853      5853      5841      5842      5857
      5857      5863      5860      5861      5857      5863      5860      5862
      5857      5863      5860      5864      5858      5857      5863      5860
      5859      5857      5863      5860      5860      5864      5865      5866
      5860      5864      5865      5867      5860      5864      5865      5868
      5861      5860      5864      5865      5862      5860      5864      5865
      5863      5860      5864      5865      5864      5865      5868      5869
      5864      5865      5868      5870      5864      5865      5868      5876
      5865      5868      5870      5871      5865      5868      5876      5877
      5865      5868      5876      5878      5865      5868      5876      5879
      5866      5865      5868      5869      5866      5865      5868      5870
      5866      5865      5868      5876      5867      5865      5868      5869
      5867      5865      5868      5870      5867      5865      5868      5876
      5868      5870      5871      5872      5868      5870      5871      5873
      5868      5876      5879      5880      5869      5868      5870      5871
      5869      5868      5876      5877      5869      5868      5876      5878
      5869      5868      5876      5879      5870      5868      5876      5877
      5870      5868      5876      5878      5870      5868      5876      5879
      5870      5871      5873      5874      5870      5871      5873      5875
      5870      5871      5873      5885      5871      5870      5868      5876
      5871      5873      5885      5886      5871      5873      5885      5887
      5871      5873      5885      5888      5872      5871      5873      5874
      5872      5871      5873      5875      5872      5871      5873      5885
      5873      5885      5888      5889      5873      5885      5888      5890
      5873      5885      5888      5891      5874      5873      5885      5886
      5874      5873      5885      5887      5874      5873      5885      5888
      5875      5873      5885      5886      5875      5873      5885      5887
      5875      5873      5885      5888      5876      5879      5880      5881
      5876      5879      5880      5882      5877      5876      5879      5880
      5878      5876      5879      5880      5879      5880      5882      5883
      5879      5880      5882      5884      5879      5880      5882      5932
      5880      5882      5932      5933      5880      5882      5932      5934
      5880      5882      5932      5935      5881      5880      5882      5883
      5881      5880      5882      5884      5881      5880      5882      5932
      5882      5932      5935      5936      5882      5932      5935      5937
      5882      5932      5935      5938      5883      5882      5932      5933
      5883      5882      5932      5934      5883      5882      5932      5935
      5884      5882      5932      5933      5884      5882      5932      5934
      5884      5882      5932      5935      5885      5888      5891      5892
      5885      5888      5891      5893      5885      5888      5891      5894
      5886      5885      5888      5889      5886      5885      5888      5890
      5886      5885      5888      5891      5887      5885      5888      5889
      5887      5885      5888      5890      5887      5885      5888      5891
      5888      5891      5894      5895      5888      5891      5894      5896
      5888      5891      5894      5897      5889      5888      5891      5892
      5889      5888      5891      5893      5889      5888      5891      5894
      5890      5888      5891      5892      5890      5888      5891      5893
      5890      5888      5891      5894      5891      5894      5897      5898
      5891      5894      5897      5899      5891      5894      5897      5900
      5892      5891      5894      5895      5892      5891      5894      5896
      5892      5891      5894      5897      5893      5891      5894      5895
      5893      5891      5894      5896      5893      5891      5894      5897
      5894      5897      5900      5901      5894      5897      5900      5902
      5894      5897      5900      5903      5895      5894      5897      5898
      5895      5894      5897      5899      5895      5894      5897      5900
      5896      5894      5897      5898      5896      5894      5897      5899
      5896      5894      5897      5900      5897      5900      5903      5904
      5897      5900      5903      5905      5898      5897      5900      5901
      5898      5897      5900      5902      5898      5897      5900      5903
      5899      5897      5900      5901      5899      5897      5900      5902
      5899      5897      5900      5903      5900      5903      5905      5906
      5900      5903      5905      5907      5901      5900      5903      5904
      5901      5900      5903      5905      5902      5900      5903      5904
      5902      5900      5903      5905      5903      5905      5907      5908
      5903      5905      5907      5909      5903      5905      5907      5910
      5904      5903      5905      5906      5904      5903      5905      5907
      5905      5907      5910      5911      5905      5907      5910      5912
      5905      5907      5910      5913      5906      5905      5907      5908
      5906      5905      5907      5909      5906      5905      5907      5910
      5907      5910      5913      5914      5907      5910      5913      5915
      5907      5910      5913      5916      5908      5907      5910      5911
      5908      5907      5910      5912      5908      5907      5910      5913
      5909      5907      5910      5911      5909      5907      5910      5912
      5909      5907      5910      5913      5910      5913      5916      5917
      5910      5913      5916      5918      5910      5913      5916      5919
      5911      5910      5913      5914      5911      5910      5913      5915
      5911      5910      5913      5916      5912      5910      5913      5914
      5912      5910      5913      5915      5912      5910      5913      5916
      5913      5916      5919      5920      5913      5916      5919      5921
      5913      5916      5919      5922      5914      5913      5916      5917
      5914      5913      5916      5918      5914      5913      5916      5919
      5915      5913      5916      5917      5915      5913      5916      5918
      5915      5913      5916      5919      5916      5919      5922      5923
      5916      5919      5922      5924      5916      5919      5922      5925
      5917      5916      5919      5920      5917      5916      5919      5921
      5917      5916      5919      5922      5918      5916      5919      5920
      5918      5916      5919      5921      5918      5916      5919      5922
      5919      5922      5925      5926      5919      5922      5925      5927
      5919      5922      5925      5928      5920      5919      5922      5923
      5920      5919      5922      5924      5920      5919      5922      5925
      5921      5919      5922      5923      5921      5919      5922      5924
      5921      5919      5922      5925      5922      5925      5928      5929
      5922      5925      5928      5930      5922      5925      5928      5931
      5923      5922      5925      5926      5923      5922      5925      5927
      5923      5922      5925      5928      5924      5922      5925      5926
      5924      5922      5925      5927      5924      5922      5925      5928
      5926      5925      5928      5929      5926      5925      5928      5930
      5926      5925      5928      5931      5927      5925      5928      5929
      5927      5925      5928      5930      5927      5925      5928      5931
      5932      5935      5938      5939      5932      5935      5938      5940
      5932      5935      5938      5941      5933      5932      5935      5936
      5933      5932      5935      5937      5933      5932      5935      5938
      5934      5932      5935      5936      5934      5932      5935      5937
      5934      5932      5935      5938      5935      5938      5941      5942
      5935      5938      5941      5943      5935      5938      5941      5944
      5936      5935      5938      5939      5936      5935      5938      5940
      5936      5935      5938      5941      5937      5935      5938      5939
      5937      5935      5938      5940      5937      5935      5938      5941
      5938      5941      5944      5945      5938      5941      5944      5946
      5938      5941      5944      5947      5939      5938      5941      5942
      5939      5938      5941      5943      5939      5938      5941      5944
      5940      5938      5941      5942      5940      5938      5941      5943
      5940      5938      5941      5944      5941      5944      5947      5948
      5941      5944      5947      5949      5941      5944      5947      5950
      5942      5941      5944      5945      5942      5941      5944      5946
      5942      5941      5944      5947      5943      5941      5944      5945
      5943      5941      5944      5946      5943      5941      5944      5947
      5944      5947      5950      5951      5944      5947      5950      5952
      5944      5947      5950      5953      5945      5944      5947      5948
      5945      5944      5947      5949      5945      5944      5947      5950
      5946      5944      5947      5948      5946      5944      5947      5949
      5946      5944      5947      5950      5947      5950      5953      5954
      5947      5950      5953      5955      5947      5950      5953      5956
      5948      5947      5950      5951      5948      5947      5950      5952
      5948      5947      5950      5953      5949      5947      5950      5951
      5949      5947      5950      5952      5949      5947      5950      5953
      5950      5953      5956      5957      5950      5953      5956      5958
      5950      5953      5956      5959      5951      5950      5953      5954
      5951      5950      5953      5955      5951      5950      5953      5956
      5952      5950      5953      5954      5952      5950      5953      5955
      5952      5950      5953      5956      5953      5956      5959      5960
      5953      5956      5959      5961      5953      5956      5959      5962
      5954      5953      5956      5957      5954      5953      5956      5958
      5954      5953      5956      5959      5955      5953      5956      5957
      5955      5953      5956      5958      5955      5953      5956      5959
      5956      5959      5962      5963      5956      5959      5962      5964
      5956      5959      5962      5965      5957      5956      5959      5960
      5957      5956      5959      5961      5957      5956      5959      5962
      5958      5956      5959      5960      5958      5956      5959      5961
      5958      5956      5959      5962      5959      5962      5965      5966
      5959      5962      5965      5967      5959      5962      5965      5968
      5960      5959      5962      5963      5960      5959      5962      5964
      5960      5959      5962      5965      5961      5959      5962      5963
      5961      5959      5962      5964      5961      5959      5962      5965
      5962      5965      5968      5969      5962      5965      5968      5970
      5962      5965      5968      5971      5963      5962      5965      5966
      5963      5962      5965      5967      5963      5962      5965      5968
      5964      5962      5965      5966      5964      5962      5965      5967
      5964      5962      5965      5968      5965      5968      5971      5972
      5965      5968      5971      5973      5965      5968      5971      5974
      5966      5965      5968      5969      5966      5965      5968      5970
      5966      5965      5968      5971      5967      5965      5968      5969
      5967      5965      5968      5970      5967      5965      5968      5971
      5969      5968      5971      5972      5969      5968      5971      5973
      5969      5968      5971      5974      5970      5968      5971      5972
      5970      5968      5971      5973      5970      5968      5971      5974
      5975      5976      5991      5992      5975      5976      5991      5993
      5975      5976      5991      5997      5976      5975      5979      5980
      5976      5975      5979      5981      5976      5975      5979      5982
      5976      5975      5983      5984      5976      5975      5983      5985
      5976      5975      5983      5986      5976      5975      5987      5988
      5976      5975      5987      5989      5976      5975      5987      5990
      5976      5991      5997      5994      5977      5976      5975      5979
      5977      5976      5975      5983      5977      5976      5975      5987
      5977      5976      5991      5992      5977      5976      5991      5993
      5977      5976      5991      5997      5978      5976      5975      5979
      5978      5976      5975      5983      5978      5976      5975      5987
      5978      5976      5991      5992      5978      5976      5991      5993
      5978      5976      5991      5997      5979      5975      5976      5991
      5979      5975      5983      5984      5979      5975      5983      5985
      5979      5975      5983      5986      5979      5975      5987      5988
      5979      5975      5987      5989      5979      5975      5987      5990
      5980      5979      5975      5983      5980      5979      5975      5987
      5981      5979      5975      5983      5981      5979      5975      5987
      5982      5979      5975      5983      5982      5979      5975      5987
      5983      5975      5976      5991      5983      5975      5987      5988
      5983      5975      5987      5989      5983      5975      5987      5990
      5984      5983      5975      5987      5985      5983      5975      5987
      5986      5983      5975      5987      5987      5975      5976      5991
      5991      5997      5994      5995      5991      5997      5994      5996
      5991      5997      5994      5998      5992      5991      5997      5994
      5993      5991      5997      5994      5994      5998      5999      6000
      5994      5998      5999      6001      5994      5998      5999      6002
      5995      5994      5998      5999      5996      5994      5998      5999
      5997      5994      5998      5999      5998      5999      6002      6003
      5998      5999      6002      6004      5998      5999      6002      6010
      5999      6002      6004      6005      5999      6002      6010      6011
      5999      6002      6010      6012      5999      6002      6010      6013
      6000      5999      6002      6003      6000      5999      6002      6004
      6000      5999      6002      6010      6001      5999      6002      6003
      6001      5999      6002      6004      6001      5999      6002      6010
      6002      6004      6005      6006      6002      6004      6005      6007
      6002      6010      6013      6014      6003      6002      6004      6005
      6003      6002      6010      6011      6003      6002      6010      6012
      6003      6002      6010      6013      6004      6002      6010      6011
      6004      6002      6010      6012      6004      6002      6010      6013
      6004      6005      6007      6008      6004      6005      6007      6009
      6004      6005      6007      6019      6005      6004      6002      6010
      6005      6007      6019      6020      6005      6007      6019      6021
      6005      6007      6019      6022      6006      6005      6007      6008
      6006      6005      6007      6009      6006      6005      6007      6019
      6007      6019      6022      6023      6007      6019      6022      6024
      6007      6019      6022      6025      6008      6007      6019      6020
      6008      6007      6019      6021      6008      6007      6019      6022
      6009      6007      6019      6020      6009      6007      6019      6021
      6009      6007      6019      6022      6010      6013      6014      6015
      6010      6013      6014      6016      6011      6010      6013      6014
      6012      6010      6013      6014      6013      6014      6016      6017
      6013      6014      6016      6018      6013      6014      6016      6066
      6014      6016      6066      6067      6014      6016      6066      6068
      6014      6016      6066      6069      6015      6014      6016      6017
      6015      6014      6016      6018      6015      6014      6016      6066
      6016      6066      6069      6070      6016      6066      6069      6071
      6016      6066      6069      6072      6017      6016      6066      6067
      6017      6016      6066      6068      6017      6016      6066      6069
      6018      6016      6066      6067      6018      6016      6066      6068
      6018      6016      6066      6069      6019      6022      6025      6026
      6019      6022      6025      6027      6019      6022      6025      6028
      6020      6019      6022      6023      6020      6019      6022      6024
      6020      6019      6022      6025      6021      6019      6022      6023
      6021      6019      6022      6024      6021      6019      6022      6025
      6022      6025      6028      6029      6022      6025      6028      6030
      6022      6025      6028      6031      6023      6022      6025      6026
      6023      6022      6025      6027      6023      6022      6025      6028
      6024      6022      6025      6026      6024      6022      6025      6027
      6024      6022      6025      6028      6025      6028      6031      6032
      6025      6028      6031      6033      6025      6028      6031      6034
      6026      6025      6028      6029      6026      6025      6028      6030
      6026      6025      6028      6031      6027      6025      6028      6029
      6027      6025      6028      6030      6027      6025      6028      6031
      6028      6031      6034      6035      6028      6031      6034      6036
      6028      6031      6034      6037      6029      6028      6031      6032
      6029      6028      6031      6033      6029      6028      6031      6034
      6030      6028      6031      6032      6030      6028      6031      6033
      6030      6028      6031      6034      6031      6034      6037      6038
      6031      6034      6037      6039      6032      6031      6034      6035
      6032      6031      6034      6036      6032      6031      6034      6037
      6033      6031      6034      6035      6033      6031      6034      6036
      6033      6031      6034      6037      6034      6037      6039      6040
      6034      6037      6039      6041      6035      6034      6037      6038
      6035      6034      6037      6039      6036      6034      6037      6038
      6036      6034      6037      6039      6037      6039      6041      6042
      6037      6039      6041      6043      6037      6039      6041      6044
      6038      6037      6039      6040      6038      6037      6039      6041
      6039      6041      6044      6045      6039      6041      6044      6046
      6039      6041      6044      6047      6040      6039      6041      6042
      6040      6039      6041      6043      6040      6039      6041      6044
      6041      6044      6047      6048      6041      6044      6047      6049
      6041      6044      6047      6050      6042      6041      6044      6045
      6042      6041      6044      6046      6042      6041      6044      6047
      6043      6041      6044      6045      6043      6041      6044      6046
      6043      6041      6044      6047      6044      6047      6050      6051
      6044      6047      6050      6052      6044      6047      6050      6053
      6045      6044      6047      6048      6045      6044      6047      6049
      6045      6044      6047      6050      6046      6044      6047      6048
      6046      6044      6047      6049      6046      6044      6047      6050
      6047      6050      6053      6054      6047      6050      6053      6055
      6047      6050      6053      6056      6048      6047      6050      6051
      6048      6047      6050      6052      6048      6047      6050      6053
      6049      6047      6050      6051      6049      6047      6050      6052
      6049      6047      6050      6053      6050      6053      6056      6057
      6050      6053      6056      6058      6050      6053      6056      6059
      6051      6050      6053      6054      6051      6050      6053      6055
      6051      6050      6053      6056      6052      6050      6053      6054
      6052      6050      6053      6055      6052      6050      6053      6056
      6053      6056      6059      6060      6053      6056      6059      6061
      6053      6056      6059      6062      6054      6053      6056      6057
      6054      6053      6056      6058      6054      6053      6056      6059
      6055      6053      6056      6057      6055      6053      6056      6058
      6055      6053      6056      6059      6056      6059      6062      6063
      6056      6059      6062      6064      6056      6059      6062      6065
      6057      6056      6059      6060      6057      6056      6059      6061
      6057      6056      6059      6062      6058      6056      6059      6060
      6058      6056      6059      6061      6058      6056      6059      6062
      6060      6059      6062      6063      6060      6059      6062      6064
      6060      6059      6062      6065      6061      6059      6062      6063
      6061      6059      6062      6064      6061      6059      6062      6065
      6066      6069      6072      6073      6066      6069      6072      6074
      6066      6069      6072      6075      6067      6066      6069      6070
      6067      6066      6069      6071      6067      6066      6069      6072
      6068      6066      6069      6070      6068      6066      6069      6071
      6068      6066      6069      6072      6069      6072      6075      6076
      6069      6072      6075      6077      6069      6072      6075      6078
      6070      6069      6072      6073      6070      6069      6072      6074
      6070      6069      6072      6075      6071      6069      6072      6073
      6071      6069      6072      6074      6071      6069      6072      6075
      6072      6075      6078      6079      6072      6075      6078      6080
      6072      6075      6078      6081      6073      6072      6075      6076
      6073      6072      6075      6077      6073      6072      6075      6078
      6074      6072      6075      6076      6074      6072      6075      6077
      6074      6072      6075      6078      6075      6078      6081      6082
      6075      6078      6081      6083      6075      6078      6081      6084
      6076      6075      6078      6079      6076      6075      6078      6080
      6076      6075      6078      6081      6077      6075      6078      6079
      6077      6075      6078      6080      6077      6075      6078      6081
      6078      6081      6084      6085      6078      6081      6084      6086
      6078      6081      6084      6087      6079      6078      6081      6082
      6079      6078      6081      6083      6079      6078      6081      6084
      6080      6078      6081      6082      6080      6078      6081      6083
      6080      6078      6081      6084      6081      6084      6087      6088
      6081      6084      6087      6089      6081      6084      6087      6090
      6082      6081      6084      6085      6082      6081      6084      6086
      6082      6081      6084      6087      6083      6081      6084      6085
      6083      6081      6084      6086      6083      6081      6084      6087
      6084      6087      6090      6091      6084      6087      6090      6092
      6084      6087      6090      6093      6085      6084      6087      6088
      6085      6084      6087      6089      6085      6084      6087      6090
      6086      6084      6087      6088      6086      6084      6087      6089
      6086      6084      6087      6090      6087      6090      6093      6094
      6087      6090      6093      6095      6087      6090      6093      6096
      6088      6087      6090      6091      6088      6087      6090      6092
      6088      6087      6090      6093      6089      6087      6090      6091
      6089      6087      6090      6092      6089      6087      6090      6093
      6090      6093      6096      6097      6090      6093      6096      6098
      6090      6093      6096      6099      6091      6090      6093      6094
      6091      6090      6093      6095      6091      6090      6093      6096
      6092      6090      6093      6094      6092      6090      6093      6095
      6092      6090      6093      6096      6093      6096      6099      6100
      6093      6096      6099      6101      6093      6096      6099      6102
      6094      6093      6096      6097      6094      6093      6096      6098
      6094      6093      6096      6099      6095      6093      6096      6097
      6095      6093      6096      6098      6095      6093      6096      6099
      6096      6099      6102      6103      6096      6099      6102      6104
      6096      6099      6102      6105      6097      6096      6099      6100
      6097      6096      6099      6101      6097      6096      6099      6102
      6098      6096      6099      6100      6098      6096      6099      6101
      6098      6096      6099      6102      6099      6102      6105      6106
      6099      6102      6105      6107      6099      6102      6105      6108
      6100      6099      6102      6103      6100      6099      6102      6104
      6100      6099      6102      6105      6101      6099      6102      6103
      6101      6099      6102      6104      6101      6099      6102      6105
      6103      6102      6105      6106      6103      6102      6105      6107
      6103      6102      6105      6108      6104      6102      6105      6106
      6104      6102      6105      6107      6104      6102      6105      6108
      6109      6113      6115      6116      6109      6113      6115      6117
      6109      6113      6118      6119      6109      6113      6118      6120
      6109      6113      6118      6124      6110      6109      6113      6114
      6110      6109      6113      6115      6110      6109      6113      6118
      6111      6109      6113      6114      6111      6109      6113      6115
      6111      6109      6113      6118      6112      6109      6113      6114
      6112      6109      6113      6115      6112      6109      6113      6118
      6113      6118      6124      6121      6114      6113      6115      6116
      6114      6113      6115      6117      6114      6113      6118      6119
      6114      6113      6118      6120      6114      6113      6118      6124
      6115      6113      6118      6119      6115      6113      6118      6120
      6115      6113      6118      6124      6116      6115      6113      6118
      6117      6115      6113      6118      6118      6124      6121      6122
      6118      6124      6121      6123      6118      6124      6121      6125
      6119      6118      6124      6121      6120      6118      6124      6121
      6121      6125      6126      6127      6121      6125      6126      6128
      6121      6125      6126      6129      6122      6121      6125      6126
      6123      6121      6125      6126      6124      6121      6125      6126
      6125      6126      6129      6130      6125      6126      6129      6131
      6125      6126      6129      6137      6126      6129      6131      6132
      6126      6129      6137      6138      6126      6129      6137      6139
      6126      6129      6137      6140      6127      6126      6129      6130
      6127      6126      6129      6131      6127      6126      6129      6137
      6128      6126      6129      6130      6128      6126      6129      6131
      6128      6126      6129      6137      6129      6131      6132      6133
      6129      6131      6132      6134      6129      6137      6140      6141
      6130      6129      6131      6132      6130      6129      6137      6138
      6130      6129      6137      6139      6130      6129      6137      6140
      6131      6129      6137      6138      6131      6129      6137      6139
      6131      6129      6137      6140      6131      6132      6134      6135
      6131      6132      6134      6136      6131      6132      6134      6146
      6132      6131      6129      6137      6132      6134      6146      6147
      6132      6134      6146      6148      6132      6134      6146      6149
      6133      6132      6134      6135      6133      6132      6134      6136
      6133      6132      6134      6146      6134      6146      6149      6150
      6134      6146      6149      6151      6134      6146      6149      6152
      6135      6134      6146      6147      6135      6134      6146      6148
      6135      6134      6146      6149      6136      6134      6146      6147
      6136      6134      6146      6148      6136      6134      6146      6149
      6137      6140      6141      6142      6137      6140      6141      6143
      6138      6137      6140      6141      6139      6137      6140      6141
      6140      6141      6143      6144      6140      6141      6143      6145
      6140      6141      6143      6193      6141      6143      6193      6194
      6141      6143      6193      6195      6141      6143      6193      6196
      6142      6141      6143      6144      6142      6141      6143      6145
      6142      6141      6143      6193      6143      6193      6196      6197
      6143      6193      6196      6198      6143      6193      6196      6199
      6144      6143      6193      6194      6144      6143      6193      6195
      6144      6143      6193      6196      6145      6143      6193      6194
      6145      6143      6193      6195      6145      6143      6193      6196
      6146      6149      6152      6153      6146      6149      6152      6154
      6146      6149      6152      6155      6147      6146      6149      6150
      6147      6146      6149      6151      6147      6146      6149      6152
      6148      6146      6149      6150      6148      6146      6149      6151
      6148      6146      6149      6152      6149      6152      6155      6156
      6149      6152      6155      6157      6149      6152      6155      6158
      6150      6149      6152      6153      6150      6149      6152      6154
      6150      6149      6152      6155      6151      6149      6152      6153
      6151      6149      6152      6154      6151      6149      6152      6155
      6152      6155      6158      6159      6152      6155      6158      6160
      6152      6155      6158      6161      6153      6152      6155      6156
      6153      6152      6155      6157      6153      6152      6155      6158
      6154      6152      6155      6156      6154      6152      6155      6157
      6154      6152      6155      6158      6155      6158      6161      6162
      6155      6158      6161      6163      6155      6158      6161      6164
      6156      6155      6158      6159      6156      6155      6158      6160
      6156      6155      6158      6161      6157      6155      6158      6159
      6157      6155      6158      6160      6157      6155      6158      6161
      6158      6161      6164      6165      6158      6161      6164      6166
      6159      6158      6161      6162      6159      6158      6161      6163
      6159      6158      6161      6164      6160      6158      6161      6162
      6160      6158      6161      6163      6160      6158      6161      6164
      6161      6164      6166      6167      6161      6164      6166      6168
      6162      6161      6164      6165      6162      6161      6164      6166
      6163      6161      6164      6165      6163      6161      6164      6166
      6164      6166      6168      6169      6164      6166      6168      6170
      6164      6166      6168      6171      6165      6164      6166      6167
      6165      6164      6166      6168      6166      6168      6171      6172
      6166      6168      6171      6173      6166      6168      6171      6174
      6167      6166      6168      6169      6167      6166      6168      6170
      6167      6166      6168      6171      6168      6171      6174      6175
      6168      6171      6174      6176      6168      6171      6174      6177
      6169      6168      6171      6172      6169      6168      6171      6173
      6169      6168      6171      6174      6170      6168      6171      6172
      6170      6168      6171      6173      6170      6168      6171      6174
      6171      6174      6177      6178      6171      6174      6177      6179
      6171      6174      6177      6180      6172      6171      6174      6175
      6172      6171      6174      6176      6172      6171      6174      6177
      6173      6171      6174      6175      6173      6171      6174      6176
      6173      6171      6174      6177      6174      6177      6180      6181
      6174      6177      6180      6182      6174      6177      6180      6183
      6175      6174      6177      6178      6175      6174      6177      6179
      6175      6174      6177      6180      6176      6174      6177      6178
      6176      6174      6177      6179      6176      6174      6177      6180
      6177      6180      6183      6184      6177      6180      6183      6185
      6177      6180      6183      6186      6178      6177      6180      6181
      6178      6177      6180      6182      6178      6177      6180      6183
      6179      6177      6180      6181      6179      6177      6180      6182
      6179      6177      6180      6183      6180      6183      6186      6187
      6180      6183      6186      6188      6180      6183      6186      6189
      6181      6180      6183      6184      6181      6180      6183      6185
      6181      6180      6183      6186      6182      6180      6183      6184
      6182      6180      6183      6185      6182      6180      6183      6186
      6183      6186      6189      6190      6183      6186      6189      6191
      6183      6186      6189      6192      6184      6183      6186      6187
      6184      6183      6186      6188      6184      6183      6186      6189
      6185      6183      6186      6187      6185      6183      6186      6188
      6185      6183      6186      6189      6187      6186      6189      6190
      6187      6186      6189      6191      6187      6186      6189      6192
      6188      6186      6189      6190      6188      6186      6189      6191
      6188      6186      6189      6192      6193      6196      6199      6200
      6193      6196      6199      6201      6193      6196      6199      6202
      6194      6193      6196      6197      6194      6193      6196      6198
      6194      6193      6196      6199      6195      6193      6196      6197
      6195      6193      6196      6198      6195      6193      6196      6199
      6196      6199      6202      6203      6196      6199      6202      6204
      6196      6199      6202      6205      6197      6196      6199      6200
      6197      6196      6199      6201      6197      6196      6199      6202
      6198      6196      6199      6200      6198      6196      6199      6201
      6198      6196      6199      6202      6199      6202      6205      6206
      6199      6202      6205      6207      6199      6202      6205      6208
      6200      6199      6202      6203      6200      6199      6202      6204
      6200      6199      6202      6205      6201      6199      6202      6203
      6201      6199      6202      6204      6201      6199      6202      6205
      6202      6205      6208      6209      6202      6205      6208      6210
      6202      6205      6208      6211      6203      6202      6205      6206
      6203      6202      6205      6207      6203      6202      6205      6208
      6204      6202      6205      6206      6204      6202      6205      6207
      6204      6202      6205      6208      6205      6208      6211      6212
      6205      6208      6211      6213      6205      6208      6211      6214
      6206      6205      6208      6209      6206      6205      6208      6210
      6206      6205      6208      6211      6207      6205      6208      6209
      6207      6205      6208      6210      6207      6205      6208      6211
      6208      6211      6214      6215      6208      6211      6214      6216
      6208      6211      6214      6217      6209      6208      6211      6212
      6209      6208      6211      6213      6209      6208      6211      6214
      6210      6208      6211      6212      6210      6208      6211      6213
      6210      6208      6211      6214      6211      6214      6217      6218
      6211      6214      6217      6219      6211      6214      6217      6220
      6212      6211      6214      6215      6212      6211      6214      6216
      6212      6211      6214      6217      6213      6211      6214      6215
      6213      6211      6214      6216      6213      6211      6214      6217
      6214      6217      6220      6221      6214      6217      6220      6222
      6214      6217      6220      6223      6215      6214      6217      6218
      6215      6214      6217      6219      6215      6214      6217      6220
      6216      6214      6217      6218      6216      6214      6217      6219
      6216      6214      6217      6220      6217      6220      6223      6224
      6217      6220      6223      6225      6217      6220      6223      6226
      6218      6217      6220      6221      6218      6217      6220      6222
      6218      6217      6220      6223      6219      6217      6220      6221
      6219      6217      6220      6222      6219      6217      6220      6223
      6220      6223      6226      6227      6220      6223      6226      6228
      6220      6223      6226      6229      6221      6220      6223      6224
      6221      6220      6223      6225      6221      6220      6223      6226
      6222      6220      6223      6224      6222      6220      6223      6225
      6222      6220      6223      6226      6223      6226      6229      6230
      6223      6226      6229      6231      6223      6226      6229      6232
      6224      6223      6226      6227      6224      6223      6226      6228
      6224      6223      6226      6229      6225      6223      6226      6227
      6225      6223      6226      6228      6225      6223      6226      6229
      6226      6229      6232      6233      6226      6229      6232      6234
      6226      6229      6232      6235      6227      6226      6229      6230
      6227      6226      6229      6231      6227      6226      6229      6232
      6228      6226      6229      6230      6228      6226      6229      6231
      6228      6226      6229      6232      6230      6229      6232      6233
      6230      6229      6232      6234      6230      6229      6232      6235
      6231      6229      6232      6233      6231      6229      6232      6234
      6231      6229      6232      6235      6236      6237      6252      6253
      6236      6237      6252      6254      6236      6237      6252      6258
      6237      6236      6240      6241      6237      6236      6240      6242
      6237      6236      6240      6243      6237      6236      6244      6245
      6237      6236      6244      6246      6237      6236      6244      6247
      6237      6236      6248      6249      6237      6236      6248      6250
      6237      6236      6248      6251      6237      6252      6258      6255
      6238      6237      6236      6240      6238      6237      6236      6244
      6238      6237      6236      6248      6238      6237      6252      6253
      6238      6237      6252      6254      6238      6237      6252      6258
      6239      6237      6236      6240      6239      6237      6236      6244
      6239      6237      6236      6248      6239      6237      6252      6253
      6239      6237      6252      6254      6239      6237      6252      6258
      6240      6236      6237      6252      6240      6236      6244      6245
      6240      6236      6244      6246      6240      6236      6244      6247
      6240      6236      6248      6249      6240      6236      6248      6250
      6240      6236      6248      6251      6241      6240      6236      6244
      6241      6240      6236      6248      6242      6240      6236      6244
      6242      6240      6236      6248      6243      6240      6236      6244
      6243      6240      6236      6248      6244      6236      6237      6252
      6244      6236      6248      6249      6244      6236      6248      6250
      6244      6236      6248      6251      6245      6244      6236      6248
      6246      6244      6236      6248      6247      6244      6236      6248
      6248      6236      6237      6252      6252      6258      6255      6256
      6252      6258      6255      6257      6252      6258      6255      6259
      6253      6252      6258      6255      6254      6252      6258      6255
      6255      6259      6260      6261      6255      6259      6260      6262
      6255      6259      6260      6263      6256      6255      6259      6260
      6257      6255      6259      6260      6258      6255      6259      6260
      6259      6260      6263      6264      6259      6260      6263      6265
      6259      6260      6263      6271      6260      6263      6265      6266
      6260      6263      6271      6272      6260      6263      6271      6273
      6260      6263      6271      6274      6261      6260      6263      6264
      6261      6260      6263      6265      6261      6260      6263      6271
      6262      6260      6263      6264      6262      6260      6263      6265
      6262      6260      6263      6271      6263      6265      6266      6267
      6263      6265      6266      6268      6263      6271      6274      6275
      6264      6263      6265      6266      6264      6263      6271      6272
      6264      6263      6271      6273      6264      6263      6271      6274
      6265      6263      6271      6272      6265      6263      6271      6273
      6265      6263      6271      6274      6265      6266      6268      6269
      6265      6266      6268      6270      6265      6266      6268      6280
      6266      6265      6263      6271      6266      6268      6280      6281
      6266      6268      6280      6282      6266      6268      6280      6283
      6267      6266      6268      6269      6267      6266      6268      6270
      6267      6266      6268      6280      6268      6280      6283      6284
      6268      6280      6283      6285      6268      6280      6283      6286
      6269      6268      6280      6281      6269      6268      6280      6282
      6269      6268      6280      6283      6270      6268      6280      6281
      6270      6268      6280      6282      6270      6268      6280      6283
      6271      6274      6275      6276      6271      6274      6275      6277
      6272      6271      6274      6275      6273      6271      6274      6275
      6274      6275      6277      6278      6274      6275      6277      6279
      6274      6275      6277      6327      6275      6277      6327      6328
      6275      6277      6327      6329      6275      6277      6327      6330
      6276      6275      6277      6278      6276      6275      6277      6279
      6276      6275      6277      6327      6277      6327      6330      6331
      6277      6327      6330      6332      6277      6327      6330      6333
      6278      6277      6327      6328      6278      6277      6327      6329
      6278      6277      6327      6330      6279      6277      6327      6328
      6279      6277      6327      6329      6279      6277      6327      6330
      6280      6283      6286      6287      6280      6283      6286      6288
      6280      6283      6286      6289      6281      6280      6283      6284
      6281      6280      6283      6285      6281      6280      6283      6286
      6282      6280      6283      6284      6282      6280      6283      6285
      6282      6280      6283      6286      6283      6286      6289      6290
      6283      6286      6289      6291      6283      6286      6289      6292
      6284      6283      6286      6287      6284      6283      6286      6288
      6284      6283      6286      6289      6285      6283      6286      6287
      6285      6283      6286      6288      6285      6283      6286      6289
      6286      6289      6292      6293      6286      6289      6292      6294
      6286      6289      6292      6295      6287      6286      6289      6290
      6287      6286      6289      6291      6287      6286      6289      6292
      6288      6286      6289      6290      6288      6286      6289      6291
      6288      6286      6289      6292      6289      6292      6295      6296
      6289      6292      6295      6297      6289      6292      6295      6298
      6290      6289      6292      6293      6290      6289      6292      6294
      6290      6289      6292      6295      6291      6289      6292      6293
      6291      6289      6292      6294      6291      6289      6292      6295
      6292      6295      6298      6299      6292      6295      6298      6300
      6293      6292      6295      6296      6293      6292      6295      6297
      6293      6292      6295      6298      6294      6292      6295      6296
      6294      6292      6295      6297      6294      6292      6295      6298
      6295      6298      6300      6301      6295      6298      6300      6302
      6296      6295      6298      6299      6296      6295      6298      6300
      6297      6295      6298      6299      6297      6295      6298      6300
      6298      6300      6302      6303      6298      6300      6302      6304
      6298      6300      6302      6305      6299      6298      6300      6301
      6299      6298      6300      6302      6300      6302      6305      6306
      6300      6302      6305      6307      6300      6302      6305      6308
      6301      6300      6302      6303      6301      6300      6302      6304
      6301      6300      6302      6305      6302      6305      6308      6309
      6302      6305      6308      6310      6302      6305      6308      6311
      6303      6302      6305      6306      6303      6302      6305      6307
      6303      6302      6305      6308      6304      6302      6305      6306
      6304      6302      6305      6307      6304      6302      6305      6308
      6305      6308      6311      6312      6305      6308      6311      6313
      6305      6308      6311      6314      6306      6305      6308      6309
      6306      6305      6308      6310      6306      6305      6308      6311
      6307      6305      6308      6309      6307      6305      6308      6310
      6307      6305      6308      6311      6308      6311      6314      6315
      6308      6311      6314      6316      6308      6311      6314      6317
      6309      6308      6311      6312      6309      6308      6311      6313
      6309      6308      6311      6314      6310      6308      6311      6312
      6310      6308      6311      6313      6310      6308      6311      6314
      6311      6314      6317      6318      6311      6314      6317      6319
      6311      6314      6317      6320      6312      6311      6314      6315
      6312      6311      6314      6316      6312      6311      6314      6317
      6313      6311      6314      6315      6313      6311      6314      6316
      6313      6311      6314      6317      6314      6317      6320      6321
      6314      6317      6320      6322      6314      6317      6320      6323
      6315      6314      6317      6318      6315      6314      6317      6319
      6315      6314      6317      6320      6316      6314      6317      6318
      6316      6314      6317      6319      6316      6314      6317      6320
      6317      6320      6323      6324      6317      6320      6323      6325
      6317      6320      6323      6326      6318      6317      6320      6321
      6318      6317      6320      6322      6318      6317      6320      6323
      6319      6317      6320      6321      6319      6317      6320      6322
      6319      6317      6320      6323      6321      6320      6323      6324
      6321      6320      6323      6325      6321      6320      6323      6326
      6322      6320      6323      6324      6322      6320      6323      6325
      6322      6320      6323      6326      6327      6330      6333      6334
      6327      6330      6333      6335      6327      6330      6333      6336
      6328      6327      6330      6331      6328      6327      6330      6332
      6328      6327      6330      6333      6329      6327      6330      6331
      6329      6327      6330      6332      6329      6327      6330      6333
      6330      6333      6336      6337      6330      6333      6336      6338
      6330      6333      6336      6339      6331      6330      6333      6334
      6331      6330      6333      6335      6331      6330      6333      6336
      6332      6330      6333      6334      6332      6330      6333      6335
      6332      6330      6333      6336      6333      6336      6339      6340
      6333      6336      6339      6341      6333      6336      6339      6342
      6334      6333      6336      6337      6334      6333      6336      6338
      6334      6333      6336      6339      6335      6333      6336      6337
      6335      6333      6336      6338      6335      6333      6336      6339
      6336      6339      6342      6343      6336      6339      6342      6344
      6336      6339      6342      6345      6337      6336      6339      6340
      6337      6336      6339      6341      6337      6336      6339      6342
      6338      6336      6339      6340      6338      6336      6339      6341
      6338      6336      6339      6342      6339      6342      6345      6346
      6339      6342      6345      6347      6339      6342      6345      6348
      6340      6339      6342      6343      6340      6339      6342      6344
      6340      6339      6342      6345      6341      6339      6342      6343
      6341      6339      6342      6344      6341      6339      6342      6345
      6342      6345      6348      6349      6342      6345      6348      6350
      6342      6345      6348      6351      6343      6342      6345      6346
      6343      6342      6345      6347      6343      6342      6345      6348
      6344      6342      6345      6346      6344      6342      6345      6347
      6344      6342      6345      6348      6345      6348      6351      6352
      6345      6348      6351      6353      6345      6348      6351      6354
      6346      6345      6348      6349      6346      6345      6348      6350
      6346      6345      6348      6351      6347      6345      6348      6349
      6347      6345      6348      6350      6347      6345      6348      6351
      6348      6351      6354      6355      6348      6351      6354      6356
      6348      6351      6354      6357      6349      6348      6351      6352
      6349      6348      6351      6353      6349      6348      6351      6354
      6350      6348      6351      6352      6350      6348      6351      6353
      6350      6348      6351      6354      6351      6354      6357      6358
      6351      6354      6357      6359      6351      6354      6357      6360
      6352      6351      6354      6355      6352      6351      6354      6356
      6352      6351      6354      6357      6353      6351      6354      6355
      6353      6351      6354      6356      6353      6351      6354      6357
      6354      6357      6360      6361      6354      6357      6360      6362
      6354      6357      6360      6363      6355      6354      6357      6358
      6355      6354      6357      6359      6355      6354      6357      6360
      6356      6354      6357      6358      6356      6354      6357      6359
      6356      6354      6357      6360      6357      6360      6363      6364
      6357      6360      6363      6365      6357      6360      6363      6366
      6358      6357      6360      6361      6358      6357      6360      6362
      6358      6357      6360      6363      6359      6357      6360      6361
      6359      6357      6360      6362      6359      6357      6360      6363
      6360      6363      6366      6367      6360      6363      6366      6368
      6360      6363      6366      6369      6361      6360      6363      6364
      6361      6360      6363      6365      6361      6360      6363      6366
      6362      6360      6363      6364      6362      6360      6363      6365
      6362      6360      6363      6366      6364      6363      6366      6367
      6364      6363      6366      6368      6364      6363      6366      6369
      6365      6363      6366      6367      6365      6363      6366      6368
      6365      6363      6366      6369      6370      6371      6386      6387
      6370      6371      6386      6388      6370      6371      6386      6392
      6371      6370      6374      6375      6371      6370      6374      6376
      6371      6370      6374      6377      6371      6370      6378      6379
      6371      6370      6378      6380      6371      6370      6378      6381
      6371      6370      6382      6383      6371      6370      6382      6384
      6371      6370      6382      6385      6371      6386      6392      6389
      6372      6371      6370      6374      6372      6371      6370      6378
      6372      6371      6370      6382      6372      6371      6386      6387
      6372      6371      6386      6388      6372      6371      6386      6392
      6373      6371      6370      6374      6373      6371      6370      6378
      6373      6371      6370      6382      6373      6371      6386      6387
      6373      6371      6386      6388      6373      6371      6386      6392
      6374      6370      6371      6386      6374      6370      6378      6379
      6374      6370      6378      6380      6374      6370      6378      6381
      6374      6370      6382      6383      6374      6370      6382      6384
      6374      6370      6382      6385      6375      6374      6370      6378
      6375      6374      6370      6382      6376      6374      6370      6378
      6376      6374      6370      6382      6377      6374      6370      6378
      6377      6374      6370      6382      6378      6370      6371      6386
      6378      6370      6382      6383      6378      6370      6382      6384
      6378      6370      6382      6385      6379      6378      6370      6382
      6380      6378      6370      6382      6381      6378      6370      6382
      6382      6370      6371      6386      6386      6392      6389      6390
      6386      6392      6389      6391      6386      6392      6389      6393
      6387      6386      6392      6389      6388      6386      6392      6389
      6389      6393      6394      6395      6389      6393      6394      6396
      6389      6393      6394      6397      6390      6389      6393      6394
      6391      6389      6393      6394      6392      6389      6393      6394
      6393      6394      6397      6398      6393      6394      6397      6399
      6393      6394      6397      6405      6394      6397      6399      6400
      6394      6397      6405      6406      6394      6397      6405      6407
      6394      6397      6405      6408      6395      6394      6397      6398
      6395      6394      6397      6399      6395      6394      6397      6405
      6396      6394      6397      6398      6396      6394      6397      6399
      6396      6394      6397      6405      6397      6399      6400      6401
      6397      6399      6400      6402      6397      6405      6408      6409
      6398      6397      6399      6400      6398      6397      6405      6406
      6398      6397      6405      6407      6398      6397      6405      6408
      6399      6397      6405      6406      6399      6397      6405      6407
      6399      6397      6405      6408      6399      6400      6402      6403
      6399      6400      6402      6404      6399      6400      6402      6414
      6400      6399      6397      6405      6400      6402      6414      6415
      6400      6402      6414      6416      6400      6402      6414      6417
      6401      6400      6402      6403      6401      6400      6402      6404
      6401      6400      6402      6414      6402      6414      6417      6418
      6402      6414      6417      6419      6402      6414      6417      6420
      6403      6402      6414      6415      6403      6402      6414      6416
      6403      6402      6414      6417      6404      6402      6414      6415
      6404      6402      6414      6416      6404      6402      6414      6417
      6405      6408      6409      6410      6405      6408      6409      6411
      6406      6405      6408      6409      6407      6405      6408      6409
      6408      6409      6411      6412      6408      6409      6411      6413
      6408      6409      6411      6461      6409      6411      6461      6462
      6409      6411      6461      6463      6409      6411      6461      6464
      6410      6409      6411      6412      6410      6409      6411      6413
      6410      6409      6411      6461      6411      6461      6464      6465
      6411      6461      6464      6466      6411      6461      6464      6467
      6412      6411      6461      6462      6412      6411      6461      6463
      6412      6411      6461      6464      6413      6411      6461      6462
      6413      6411      6461      6463      6413      6411      6461      6464
      6414      6417      6420      6421      6414      6417      6420      6422
      6414      6417      6420      6423      6415      6414      6417      6418
      6415      6414      6417      6419      6415      6414      6417      6420
      6416      6414      6417      6418      6416      6414      6417      6419
      6416      6414      6417      6420      6417      6420      6423      6424
      6417      6420      6423      6425      6417      6420      6423      6426
      6418      6417      6420      6421      6418      6417      6420      6422
      6418      6417      6420      6423      6419      6417      6420      6421
      6419      6417      6420      6422      6419      6417      6420      6423
      6420      6423      6426      6427      6420      6423      6426      6428
      6420      6423      6426      6429      6421      6420      6423      6424
      6421      6420      6423      6425      6421      6420      6423      6426
      6422      6420      6423      6424      6422      6420      6423      6425
      6422      6420      6423      6426      6423      6426      6429      6430
      6423      6426      6429      6431      6423      6426      6429      6432
      6424      6423      6426      6427      6424      6423      6426      6428
      6424      6423      6426      6429      6425      6423      6426      6427
      6425      6423      6426      6428      6425      6423      6426      6429
      6426      6429      6432      6433      6426      6429      6432      6434
      6427      6426      6429      6430      6427      6426      6429      6431
      6427      6426      6429      6432      6428      6426      6429      6430
      6428      6426      6429      6431      6428      6426      6429      6432
      6429      6432      6434      6435      6429      6432      6434      6436
      6430      6429      6432      6433      6430      6429      6432      6434
      6431      6429      6432      6433      6431      6429      6432      6434
      6432      6434      6436      6437      6432      6434      6436      6438
      6432      6434      6436      6439      6433      6432      6434      6435
      6433      6432      6434      6436      6434      6436      6439      6440
      6434      6436      6439      6441      6434      6436      6439      6442
      6435      6434      6436      6437      6435      6434      6436      6438
      6435      6434      6436      6439      6436      6439      6442      6443
      6436      6439      6442      6444      6436      6439      6442      6445
      6437      6436      6439      6440      6437      6436      6439      6441
      6437      6436      6439      6442      6438      6436      6439      6440
      6438      6436      6439      6441      6438      6436      6439      6442
      6439      6442      6445      6446      6439      6442      6445      6447
      6439      6442      6445      6448      6440      6439      6442      6443
      6440      6439      6442      6444      6440      6439      6442      6445
      6441      6439      6442      6443      6441      6439      6442      6444
      6441      6439      6442      6445      6442      6445      6448      6449
      6442      6445      6448      6450      6442      6445      6448      6451
      6443      6442      6445      6446      6443      6442      6445      6447
      6443      6442      6445      6448      6444      6442      6445      6446
      6444      6442      6445      6447      6444      6442      6445      6448
      6445      6448      6451      6452      6445      6448      6451      6453
      6445      6448      6451      6454      6446      6445      6448      6449
      6446      6445      6448      6450      6446      6445      6448      6451
      6447      6445      6448      6449      6447      6445      6448      6450
      6447      6445      6448      6451      6448      6451      6454      6455
      6448      6451      6454      6456      6448      6451      6454      6457
      6449      6448      6451      6452      6449      6448      6451      6453
      6449      6448      6451      6454      6450      6448      6451      6452
      6450      6448      6451      6453      6450      6448      6451      6454
      6451      6454      6457      6458      6451      6454      6457      6459
      6451      6454      6457      6460      6452      6451      6454      6455
      6452      6451      6454      6456      6452      6451      6454      6457
      6453      6451      6454      6455      6453      6451      6454      6456
      6453      6451      6454      6457      6455      6454      6457      6458
      6455      6454      6457      6459      6455      6454      6457      6460
      6456      6454      6457      6458      6456      6454      6457      6459
      6456      6454      6457      6460      6461      6464      6467      6468
      6461      6464      6467      6469      6461      6464      6467      6470
      6462      6461      6464      6465      6462      6461      6464      6466
      6462      6461      6464      6467      6463      6461      6464      6465
      6463      6461      6464      6466      6463      6461      6464      6467
      6464      6467      6470      6471      6464      6467      6470      6472
      6464      6467      6470      6473      6465      6464      6467      6468
      6465      6464      6467      6469      6465      6464      6467      6470
      6466      6464      6467      6468      6466      6464      6467      6469
      6466      6464      6467      6470      6467      6470      6473      6474
      6467      6470      6473      6475      6467      6470      6473      6476
      6468      6467      6470      6471      6468      6467      6470      6472
      6468      6467      6470      6473      6469      6467      6470      6471
      6469      6467      6470      6472      6469      6467      6470      6473
      6470      6473      6476      6477      6470      6473      6476      6478
      6470      6473      6476      6479      6471      6470      6473      6474
      6471      6470      6473      6475      6471      6470      6473      6476
      6472      6470      6473      6474      6472      6470      6473      6475
      6472      6470      6473      6476      6473      6476      6479      6480
      6473      6476      6479      6481      6473      6476      6479      6482
      6474      6473      6476      6477      6474      6473      6476      6478
      6474      6473      6476      6479      6475      6473      6476      6477
      6475      6473      6476      6478      6475      6473      6476      6479
      6476      6479      6482      6483      6476      6479      6482      6484
      6476      6479      6482      6485      6477      6476      6479      6480
      6477      6476      6479      6481      6477      6476      6479      6482
      6478      6476      6479      6480      6478      6476      6479      6481
      6478      6476      6479      6482      6479      6482      6485      6486
      6479      6482      6485      6487      6479      6482      6485      6488
      6480      6479      6482      6483      6480      6479      6482      6484
      6480      6479      6482      6485      6481      6479      6482      6483
      6481      6479      6482      6484      6481      6479      6482      6485
      6482      6485      6488      6489      6482      6485      6488      6490
      6482      6485      6488      6491      6483      6482      6485      6486
      6483      6482      6485      6487      6483      6482      6485      6488
      6484      6482      6485      6486      6484      6482      6485      6487
      6484      6482      6485      6488      6485      6488      6491      6492
      6485      6488      6491      6493      6485      6488      6491      6494
      6486      6485      6488      6489      6486      6485      6488      6490
      6486      6485      6488      6491      6487      6485      6488      6489
      6487      6485      6488      6490      6487      6485      6488      6491
      6488      6491      6494      6495      6488      6491      6494      6496
      6488      6491      6494      6497      6489      6488      6491      6492
      6489      6488      6491      6493      6489      6488      6491      6494
      6490      6488      6491      6492      6490      6488      6491      6493
      6490      6488      6491      6494      6491      6494      6497      6498
      6491      6494      6497      6499      6491      6494      6497      6500
      6492      6491      6494      6495      6492      6491      6494      6496
      6492      6491      6494      6497      6493      6491      6494      6495
      6493      6491      6494      6496      6493      6491      6494      6497
      6494      6497      6500      6501      6494      6497      6500      6502
      6494      6497      6500      6503      6495      6494      6497      6498
      6495      6494      6497      6499      6495      6494      6497      6500
      6496      6494      6497      6498      6496      6494      6497      6499
      6496      6494      6497      6500      6498      6497      6500      6501
      6498      6497      6500      6502      6498      6497      6500      6503
      6499      6497      6500      6501      6499      6497      6500      6502
      6499      6497      6500      6503      6504      6508      6510      6511
      6504      6508      6510      6512      6504      6508      6513      6514
      6504      6508      6513      6515      6504      6508      6513      6519
      6505      6504      6508      6509      6505      6504      6508      6510
      6505      6504      6508      6513      6506      6504      6508      6509
      6506      6504      6508      6510      6506      6504      6508      6513
      6507      6504      6508      6509      6507      6504      6508      6510
      6507      6504      6508      6513      6508      6513      6519      6516
      6509      6508      6510      6511      6509      6508      6510      6512
      6509      6508      6513      6514      6509      6508      6513      6515
      6509      6508      6513      6519      6510      6508      6513      6514
      6510      6508      6513      6515      6510      6508      6513      6519
      6511      6510      6508      6513      6512      6510      6508      6513
      6513      6519      6516      6517      6513      6519      6516      6518
      6513      6519      6516      6520      6514      6513      6519      6516
      6515      6513      6519      6516      6516      6520      6521      6522
      6516      6520      6521      6523      6516      6520      6521      6524
      6517      6516      6520      6521      6518      6516      6520      6521
      6519      6516      6520      6521      6520      6521      6524      6525
      6520      6521      6524      6526      6520      6521      6524      6532
      6521      6524      6526      6527      6521      6524      6532      6533
      6521      6524      6532      6534      6521      6524      6532      6535
      6522      6521      6524      6525      6522      6521      6524      6526
      6522      6521      6524      6532      6523      6521      6524      6525
      6523      6521      6524      6526      6523      6521      6524      6532
      6524      6526      6527      6528      6524      6526      6527      6529
      6524      6532      6535      6536      6525      6524      6526      6527
      6525      6524      6532      6533      6525      6524      6532      6534
      6525      6524      6532      6535      6526      6524      6532      6533
      6526      6524      6532      6534      6526      6524      6532      6535
      6526      6527      6529      6530      6526      6527      6529      6531
      6526      6527      6529      6541      6527      6526      6524      6532
      6527      6529      6541      6542      6527      6529      6541      6543
      6527      6529      6541      6544      6528      6527      6529      6530
      6528      6527      6529      6531      6528      6527      6529      6541
      6529      6541      6544      6545      6529      6541      6544      6546
      6529      6541      6544      6547      6530      6529      6541      6542
      6530      6529      6541      6543      6530      6529      6541      6544
      6531      6529      6541      6542      6531      6529      6541      6543
      6531      6529      6541      6544      6532      6535      6536      6537
      6532      6535      6536      6538      6533      6532      6535      6536
      6534      6532      6535      6536      6535      6536      6538      6539
      6535      6536      6538      6540      6535      6536      6538      6588
      6536      6538      6588      6589      6536      6538      6588      6590
      6536      6538      6588      6591      6537      6536      6538      6539
      6537      6536      6538      6540      6537      6536      6538      6588
      6538      6588      6591      6592      6538      6588      6591      6593
      6538      6588      6591      6594      6539      6538      6588      6589
      6539      6538      6588      6590      6539      6538      6588      6591
      6540      6538      6588      6589      6540      6538      6588      6590
      6540      6538      6588      6591      6541      6544      6547      6548
      6541      6544      6547      6549      6541      6544      6547      6550
      6542      6541      6544      6545      6542      6541      6544      6546
      6542      6541      6544      6547      6543      6541      6544      6545
      6543      6541      6544      6546      6543      6541      6544      6547
      6544      6547      6550      6551      6544      6547      6550      6552
      6544      6547      6550      6553      6545      6544      6547      6548
      6545      6544      6547      6549      6545      6544      6547      6550
      6546      6544      6547      6548      6546      6544      6547      6549
      6546      6544      6547      6550      6547      6550      6553      6554
      6547      6550      6553      6555      6547      6550      6553      6556
      6548      6547      6550      6551      6548      6547      6550      6552
      6548      6547      6550      6553      6549      6547      6550      6551
      6549      6547      6550      6552      6549      6547      6550      6553
      6550      6553      6556      6557      6550      6553      6556      6558
      6550      6553      6556      6559      6551      6550      6553      6554
      6551      6550      6553      6555      6551      6550      6553      6556
      6552      6550      6553      6554      6552      6550      6553      6555
      6552      6550      6553      6556      6553      6556      6559      6560
      6553      6556      6559      6561      6554      6553      6556      6557
      6554      6553      6556      6558      6554      6553      6556      6559
      6555      6553      6556      6557      6555      6553      6556      6558
      6555      6553      6556      6559      6556      6559      6561      6562
      6556      6559      6561      6563      6557      6556      6559      6560
      6557      6556      6559      6561      6558      6556      6559      6560
      6558      6556      6559      6561      6559      6561      6563      6564
      6559      6561      6563      6565      6559      6561      6563      6566
      6560      6559      6561      6562      6560      6559      6561      6563
      6561      6563      6566      6567      6561      6563      6566      6568
      6561      6563      6566      6569      6562      6561      6563      6564
      6562      6561      6563      6565      6562      6561      6563      6566
      6563      6566      6569      6570      6563      6566      6569      6571
      6563      6566      6569      6572      6564      6563      6566      6567
      6564      6563      6566      6568      6564      6563      6566      6569
      6565      6563      6566      6567      6565      6563      6566      6568
      6565      6563      6566      6569      6566      6569      6572      6573
      6566      6569      6572      6574      6566      6569      6572      6575
      6567      6566      6569      6570      6567      6566      6569      6571
      6567      6566      6569      6572      6568      6566      6569      6570
      6568      6566      6569      6571      6568      6566      6569      6572
      6569      6572      6575      6576      6569      6572      6575      6577
      6569      6572      6575      6578      6570      6569      6572      6573
      6570      6569      6572      6574      6570      6569      6572      6575
      6571      6569      6572      6573      6571      6569      6572      6574
      6571      6569      6572      6575      6572      6575      6578      6579
      6572      6575      6578      6580      6572      6575      6578      6581
      6573      6572      6575      6576      6573      6572      6575      6577
      6573      6572      6575      6578      6574      6572      6575      6576
      6574      6572      6575      6577      6574      6572      6575      6578
      6575      6578      6581      6582      6575      6578      6581      6583
      6575      6578      6581      6584      6576      6575      6578      6579
      6576      6575      6578      6580      6576      6575      6578      6581
      6577      6575      6578      6579      6577      6575      6578      6580
      6577      6575      6578      6581      6578      6581      6584      6585
      6578      6581      6584      6586      6578      6581      6584      6587
      6579      6578      6581      6582      6579      6578      6581      6583
      6579      6578      6581      6584      6580      6578      6581      6582
      6580      6578      6581      6583      6580      6578      6581      6584
      6582      6581      6584      6585      6582      6581      6584      6586
      6582      6581      6584      6587      6583      6581      6584      6585
      6583      6581      6584      6586      6583      6581      6584      6587
      6588      6591      6594      6595      6588      6591      6594      6596
      6588      6591      6594      6597      6589      6588      6591      6592
      6589      6588      6591      6593      6589      6588      6591      6594
      6590      6588      6591      6592      6590      6588      6591      6593
      6590      6588      6591      6594      6591      6594      6597      6598
      6591      6594      6597      6599      6591      6594      6597      6600
      6592      6591      6594      6595      6592      6591      6594      6596
      6592      6591      6594      6597      6593      6591      6594      6595
      6593      6591      6594      6596      6593      6591      6594      6597
      6594      6597      6600      6601      6594      6597      6600      6602
      6594      6597      6600      6603      6595      6594      6597      6598
      6595      6594      6597      6599      6595      6594      6597      6600
      6596      6594      6597      6598      6596      6594      6597      6599
      6596      6594      6597      6600      6597      6600      6603      6604
      6597      6600      6603      6605      6597      6600      6603      6606
      6598      6597      6600      6601      6598      6597      6600      6602
      6598      6597      6600      6603      6599      6597      6600      6601
      6599      6597      6600      6602      6599      6597      6600      6603
      6600      6603      6606      6607      6600      6603      6606      6608
      6600      6603      6606      6609      6601      6600      6603      6604
      6601      6600      6603      6605      6601      6600      6603      6606
      6602      6600      6603      6604      6602      6600      6603      6605
      6602      6600      6603      6606      6603      6606      6609      6610
      6603      6606      6609      6611      6603      6606      6609      6612
      6604      6603      6606      6607      6604      6603      6606      6608
      6604      6603      6606      6609      6605      6603      6606      6607
      6605      6603      6606      6608      6605      6603      6606      6609
      6606      6609      6612      6613      6606      6609      6612      6614
      6606      6609      6612      6615      6607      6606      6609      6610
      6607      6606      6609      6611      6607      6606      6609      6612
      6608      6606      6609      6610      6608      6606      6609      6611
      6608      6606      6609      6612      6609      6612      6615      6616
      6609      6612      6615      6617      6609      6612      6615      6618
      6610      6609      6612      6613      6610      6609      6612      6614
      6610      6609      6612      6615      6611      6609      6612      6613
      6611      6609      6612      6614      6611      6609      6612      6615
      6612      6615      6618      6619      6612      6615      6618      6620
      6612      6615      6618      6621      6613      6612      6615      6616
      6613      6612      6615      6617      6613      6612      6615      6618
      6614      6612      6615      6616      6614      6612      6615      6617
      6614      6612      6615      6618      6615      6618      6621      6622
      6615      6618      6621      6623      6615      6618      6621      6624
      6616      6615      6618      6619      6616      6615      6618      6620
      6616      6615      6618      6621      6617      6615      6618      6619
      6617      6615      6618      6620      6617      6615      6618      6621
      6618      6621      6624      6625      6618      6621      6624      6626
      6618      6621      6624      6627      6619      6618      6621      6622
      6619      6618      6621      6623      6619      6618      6621      6624
      6620      6618      6621      6622      6620      6618      6621      6623
      6620      6618      6621      6624      6621      6624      6627      6628
      6621      6624      6627      6629      6621      6624      6627      6630
      6622      6621      6624      6625      6622      6621      6624      6626
      6622      6621      6624      6627      6623      6621      6624      6625
      6623      6621      6624      6626      6623      6621      6624      6627
      6625      6624      6627      6628      6625      6624      6627      6629
      6625      6624      6627      6630      6626      6624      6627      6628
      6626      6624      6627      6629      6626      6624      6627      6630
      6631      6635      6637      6638      6631      6635      6637      6639
      6631      6635      6640      6641      6631      6635      6640      6642
      6631      6635      6640      6646      6632      6631      6635      6636
      6632      6631      6635      6637      6632      6631      6635      6640
      6633      6631      6635      6636      6633      6631      6635      6637
      6633      6631      6635      6640      6634      6631      6635      6636
      6634      6631      6635      6637      6634      6631      6635      6640
      6635      6640      6646      6643      6636      6635      6637      6638
      6636      6635      6637      6639      6636      6635      6640      6641
      6636      6635      6640      6642      6636      6635      6640      6646
      6637      6635      6640      6641      6637      6635      6640      6642
      6637      6635      6640      6646      6638      6637      6635      6640
      6639      6637      6635      6640      6640      6646      6643      6644
      6640      6646      6643      6645      6640      6646      6643      6647
      6641      6640      6646      6643      6642      6640      6646      6643
      6643      6647      6648      6649      6643      6647      6648      6650
      6643      6647      6648      6651      6644      6643      6647      6648
      6645      6643      6647      6648      6646      6643      6647      6648
      6647      6648      6651      6652      6647      6648      6651      6653
      6647      6648      6651      6659      6648      6651      6653      6654
      6648      6651      6659      6660      6648      6651      6659      6661
      6648      6651      6659      6662      6649      6648      6651      6652
      6649      6648      6651      6653      6649      6648      6651      6659
      6650      6648      6651      6652      6650      6648      6651      6653
      6650      6648      6651      6659      6651      6653      6654      6655
      6651      6653      6654      6656      6651      6659      6662      6663
      6652      6651      6653      6654      6652      6651      6659      6660
      6652      6651      6659      6661      6652      6651      6659      6662
      6653      6651      6659      6660      6653      6651      6659      6661
      6653      6651      6659      6662      6653      6654      6656      6657
      6653      6654      6656      6658      6653      6654      6656      6668
      6654      6653      6651      6659      6654      6656      6668      6669
      6654      6656      6668      6670      6654      6656      6668      6671
      6655      6654      6656      6657      6655      6654      6656      6658
      6655      6654      6656      6668      6656      6668      6671      6672
      6656      6668      6671      6673      6656      6668      6671      6674
      6657      6656      6668      6669      6657      6656      6668      6670
      6657      6656      6668      6671      6658      6656      6668      6669
      6658      6656      6668      6670      6658      6656      6668      6671
      6659      6662      6663      6664      6659      6662      6663      6665
      6660      6659      6662      6663      6661      6659      6662      6663
      6662      6663      6665      6666      6662      6663      6665      6667
      6662      6663      6665      6715      6663      6665      6715      6716
      6663      6665      6715      6717      6663      6665      6715      6718
      6664      6663      6665      6666      6664      6663      6665      6667
      6664      6663      6665      6715      6665      6715      6718      6719
      6665      6715      6718      6720      6665      6715      6718      6721
      6666      6665      6715      6716      6666      6665      6715      6717
      6666      6665      6715      6718      6667      6665      6715      6716
      6667      6665      6715      6717      6667      6665      6715      6718
      6668      6671      6674      6675      6668      6671      6674      6676
      6668      6671      6674      6677      6669      6668      6671      6672
      6669      6668      6671      6673      6669      6668      6671      6674
      6670      6668      6671      6672      6670      6668      6671      6673
      6670      6668      6671      6674      6671      6674      6677      6678
      6671      6674      6677      6679      6671      6674      6677      6680
      6672      6671      6674      6675      6672      6671      6674      6676
      6672      6671      6674      6677      6673      6671      6674      6675
      6673      6671      6674      6676      6673      6671      6674      6677
      6674      6677      6680      6681      6674      6677      6680      6682
      6674      6677      6680      6683      6675      6674      6677      6678
      6675      6674      6677      6679      6675      6674      6677      6680
      6676      6674      6677      6678      6676      6674      6677      6679
      6676      6674      6677      6680      6677      6680      6683      6684
      6677      6680      6683      6685      6677      6680      6683      6686
      6678      6677      6680      6681      6678      6677      6680      6682
      6678      6677      6680      6683      6679      6677      6680      6681
      6679      6677      6680      6682      6679      6677      6680      6683
      6680      6683      6686      6687      6680      6683      6686      6688
      6681      6680      6683      6684      6681      6680      6683      6685
      6681      6680      6683      6686      6682      6680      6683      6684
      6682      6680      6683      6685      6682      6680      6683      6686
      6683      6686      6688      6689      6683      6686      6688      6690
      6684      6683      6686      6687      6684      6683      6686      6688
      6685      6683      6686      6687      6685      6683      6686      6688
      6686      6688      6690      6691      6686      6688      6690      6692
      6686      6688      6690      6693      6687      6686      6688      6689
      6687      6686      6688      6690      6688      6690      6693      6694
      6688      6690      6693      6695      6688      6690      6693      6696
      6689      6688      6690      6691      6689      6688      6690      6692
      6689      6688      6690      6693      6690      6693      6696      6697
      6690      6693      6696      6698      6690      6693      6696      6699
      6691      6690      6693      6694      6691      6690      6693      6695
      6691      6690      6693      6696      6692      6690      6693      6694
      6692      6690      6693      6695      6692      6690      6693      6696
      6693      6696      6699      6700      6693      6696      6699      6701
      6693      6696      6699      6702      6694      6693      6696      6697
      6694      6693      6696      6698      6694      6693      6696      6699
      6695      6693      6696      6697      6695      6693      6696      6698
      6695      6693      6696      6699      6696      6699      6702      6703
      6696      6699      6702      6704      6696      6699      6702      6705
      6697      6696      6699      6700      6697      6696      6699      6701
      6697      6696      6699      6702      6698      6696      6699      6700
      6698      6696      6699      6701      6698      6696      6699      6702
      6699      6702      6705      6706      6699      6702      6705      6707
      6699      6702      6705      6708      6700      6699      6702      6703
      6700      6699      6702      6704      6700      6699      6702      6705
      6701      6699      6702      6703      6701      6699      6702      6704
      6701      6699      6702      6705      6702      6705      6708      6709
      6702      6705      6708      6710      6702      6705      6708      6711
      6703      6702      6705      6706      6703      6702      6705      6707
      6703      6702      6705      6708      6704      6702      6705      6706
      6704      6702      6705      6707      6704      6702      6705      6708
      6705      6708      6711      6712      6705      6708      6711      6713
      6705      6708      6711      6714      6706      6705      6708      6709
      6706      6705      6708      6710      6706      6705      6708      6711
      6707      6705      6708      6709      6707      6705      6708      6710
      6707      6705      6708      6711      6709      6708      6711      6712
      6709      6708      6711      6713      6709      6708      6711      6714
      6710      6708      6711      6712      6710      6708      6711      6713
      6710      6708      6711      6714      6715      6718      6721      6722
      6715      6718      6721      6723      6715      6718      6721      6724
      6716      6715      6718      6719      6716      6715      6718      6720
      6716      6715      6718      6721      6717      6715      6718      6719
      6717      6715      6718      6720      6717      6715      6718      6721
      6718      6721      6724      6725      6718      6721      6724      6726
      6718      6721      6724      6727      6719      6718      6721      6722
      6719      6718      6721      6723      6719      6718      6721      6724
      6720      6718      6721      6722      6720      6718      6721      6723
      6720      6718      6721      6724      6721      6724      6727      6728
      6721      6724      6727      6729      6721      6724      6727      6730
      6722      6721      6724      6725      6722      6721      6724      6726
      6722      6721      6724      6727      6723      6721      6724      6725
      6723      6721      6724      6726      6723      6721      6724      6727
      6724      6727      6730      6731      6724      6727      6730      6732
      6724      6727      6730      6733      6725      6724      6727      6728
      6725      6724      6727      6729      6725      6724      6727      6730
      6726      6724      6727      6728      6726      6724      6727      6729
      6726      6724      6727      6730      6727      6730      6733      6734
      6727      6730      6733      6735      6727      6730      6733      6736
      6728      6727      6730      6731      6728      6727      6730      6732
      6728      6727      6730      6733      6729      6727      6730      6731
      6729      6727      6730      6732      6729      6727      6730      6733
      6730      6733      6736      6737      6730      6733      6736      6738
      6730      6733      6736      6739      6731      6730      6733      6734
      6731      6730      6733      6735      6731      6730      6733      6736
      6732      6730      6733      6734      6732      6730      6733      6735
      6732      6730      6733      6736      6733      6736      6739      6740
      6733      6736      6739      6741      6733      6736      6739      6742
      6734      6733      6736      6737      6734      6733      6736      6738
      6734      6733      6736      6739      6735      6733      6736      6737
      6735      6733      6736      6738      6735      6733      6736      6739
      6736      6739      6742      6743      6736      6739      6742      6744
      6736      6739      6742      6745      6737      6736      6739      6740
      6737      6736      6739      6741      6737      6736      6739      6742
      6738      6736      6739      6740      6738      6736      6739      6741
      6738      6736      6739      6742      6739      6742      6745      6746
      6739      6742      6745      6747      6739      6742      6745      6748
      6740      6739      6742      6743      6740      6739      6742      6744
      6740      6739      6742      6745      6741      6739      6742      6743
      6741      6739      6742      6744      6741      6739      6742      6745
      6742      6745      6748      6749      6742      6745      6748      6750
      6742      6745      6748      6751      6743      6742      6745      6746
      6743      6742      6745      6747      6743      6742      6745      6748
      6744      6742      6745      6746      6744      6742      6745      6747
      6744      6742      6745      6748      6745      6748      6751      6752
      6745      6748      6751      6753      6745      6748      6751      6754
      6746      6745      6748      6749      6746      6745      6748      6750
      6746      6745      6748      6751      6747      6745      6748      6749
      6747      6745      6748      6750      6747      6745      6748      6751
      6748      6751      6754      6755      6748      6751      6754      6756
      6748      6751      6754      6757      6749      6748      6751      6752
      6749      6748      6751      6753      6749      6748      6751      6754
      6750      6748      6751      6752      6750      6748      6751      6753
      6750      6748      6751      6754      6752      6751      6754      6755
      6752      6751      6754      6756      6752      6751      6754      6757
      6753      6751      6754      6755      6753      6751      6754      6756
      6753      6751      6754      6757      6758      6759      6774      6775
      6758      6759      6774      6776      6758      6759      6774      6780
      6759      6758      6762      6763      6759      6758      6762      6764
      6759      6758      6762      6765      6759      6758      6766      6767
      6759      6758      6766      6768      6759      6758      6766      6769
      6759      6758      6770      6771      6759      6758      6770      6772
      6759      6758      6770      6773      6759      6774      6780      6777
      6760      6759      6758      6762      6760      6759      6758      6766
      6760      6759      6758      6770      6760      6759      6774      6775
      6760      6759      6774      6776      6760      6759      6774      6780
      6761      6759      6758      6762      6761      6759      6758      6766
      6761      6759      6758      6770      6761      6759      6774      6775
      6761      6759      6774      6776      6761      6759      6774      6780
      6762      6758      6759      6774      6762      6758      6766      6767
      6762      6758      6766      6768      6762      6758      6766      6769
      6762      6758      6770      6771      6762      6758      6770      6772
      6762      6758      6770      6773      6763      6762      6758      6766
      6763      6762      6758      6770      6764      6762      6758      6766
      6764      6762      6758      6770      6765      6762      6758      6766
      6765      6762      6758      6770      6766      6758      6759      6774
      6766      6758      6770      6771      6766      6758      6770      6772
      6766      6758      6770      6773      6767      6766      6758      6770
      6768      6766      6758      6770      6769      6766      6758      6770
      6770      6758      6759      6774      6774      6780      6777      6778
      6774      6780      6777      6779      6774      6780      6777      6781
      6775      6774      6780      6777      6776      6774      6780      6777
      6777      6781      6782      6783      6777      6781      6782      6784
      6777      6781      6782      6785      6778      6777      6781      6782
      6779      6777      6781      6782      6780      6777      6781      6782
      6781      6782      6785      6786      6781      6782      6785      6787
      6781      6782      6785      6793      6782      6785      6787      6788
      6782      6785      6793      6794      6782      6785      6793      6795
      6782      6785      6793      6796      6783      6782      6785      6786
      6783      6782      6785      6787      6783      6782      6785      6793
      6784      6782      6785      6786      6784      6782      6785      6787
      6784      6782      6785      6793      6785      6787      6788      6789
      6785      6787      6788      6790      6785      6793      6796      6797
      6786      6785      6787      6788      6786      6785      6793      6794
      6786      6785      6793      6795      6786      6785      6793      6796
      6787      6785      6793      6794      6787      6785      6793      6795
      6787      6785      6793      6796      6787      6788      6790      6791
      6787      6788      6790      6792      6787      6788      6790      6802
      6788      6787      6785      6793      6788      6790      6802      6803
      6788      6790      6802      6804      6788      6790      6802      6805
      6789      6788      6790      6791      6789      6788      6790      6792
      6789      6788      6790      6802      6790      6802      6805      6806
      6790      6802      6805      6807      6790      6802      6805      6808
      6791      6790      6802      6803      6791      6790      6802      6804
      6791      6790      6802      6805      6792      6790      6802      6803
      6792      6790      6802      6804      6792      6790      6802      6805
      6793      6796      6797      6798      6793      6796      6797      6799
      6794      6793      6796      6797      6795      6793      6796      6797
      6796      6797      6799      6800      6796      6797      6799      6801
      6796      6797      6799      6849      6797      6799      6849      6850
      6797      6799      6849      6851      6797      6799      6849      6852
      6798      6797      6799      6800      6798      6797      6799      6801
      6798      6797      6799      6849      6799      6849      6852      6853
      6799      6849      6852      6854      6799      6849      6852      6855
      6800      6799      6849      6850      6800      6799      6849      6851
      6800      6799      6849      6852      6801      6799      6849      6850
      6801      6799      6849      6851      6801      6799      6849      6852
      6802      6805      6808      6809      6802      6805      6808      6810
      6802      6805      6808      6811      6803      6802      6805      6806
      6803      6802      6805      6807      6803      6802      6805      6808
      6804      6802      6805      6806      6804      6802      6805      6807
      6804      6802      6805      6808      6805      6808      6811      6812
      6805      6808      6811      6813      6805      6808      6811      6814
      6806      6805      6808      6809      6806      6805      6808      6810
      6806      6805      6808      6811      6807      6805      6808      6809
      6807      6805      6808      6810      6807      6805      6808      6811
      6808      6811      6814      6815      6808      6811      6814      6816
      6808      6811      6814      6817      6809      6808      6811      6812
      6809      6808      6811      6813      6809      6808      6811      6814
      6810      6808      6811      6812      6810      6808      6811      6813
      6810      6808      6811      6814      6811      6814      6817      6818
      6811      6814      6817      6819      6811      6814      6817      6820
      6812      6811      6814      6815      6812      6811      6814      6816
      6812      6811      6814      6817      6813      6811      6814      6815
      6813      6811      6814      6816      6813      6811      6814      6817
      6814      6817      6820      6821      6814      6817      6820      6822
      6815      6814      6817      6818      6815      6814      6817      6819
      6815      6814      6817      6820      6816      6814      6817      6818
      6816      6814      6817      6819      6816      6814      6817      6820
      6817      6820      6822      6823      6817      6820      6822      6824
      6818      6817      6820      6821      6818      6817      6820      6822
      6819      6817      6820      6821      6819      6817      6820      6822
      6820      6822      6824      6825      6820      6822      6824      6826
      6820      6822      6824      6827      6821      6820      6822      6823
      6821      6820      6822      6824      6822      6824      6827      6828
      6822      6824      6827      6829      6822      6824      6827      6830
      6823      6822      6824      6825      6823      6822      6824      6826
      6823      6822      6824      6827      6824      6827      6830      6831
      6824      6827      6830      6832      6824      6827      6830      6833
      6825      6824      6827      6828      6825      6824      6827      6829
      6825      6824      6827      6830      6826      6824      6827      6828
      6826      6824      6827      6829      6826      6824      6827      6830
      6827      6830      6833      6834      6827      6830      6833      6835
      6827      6830      6833      6836      6828      6827      6830      6831
      6828      6827      6830      6832      6828      6827      6830      6833
      6829      6827      6830      6831      6829      6827      6830      6832
      6829      6827      6830      6833      6830      6833      6836      6837
      6830      6833      6836      6838      6830      6833      6836      6839
      6831      6830      6833      6834      6831      6830      6833      6835
      6831      6830      6833      6836      6832      6830      6833      6834
      6832      6830      6833      6835      6832      6830      6833      6836
      6833      6836      6839      6840      6833      6836      6839      6841
      6833      6836      6839      6842      6834      6833      6836      6837
      6834      6833      6836      6838      6834      6833      6836      6839
      6835      6833      6836      6837      6835      6833      6836      6838
      6835      6833      6836      6839      6836      6839      6842      6843
      6836      6839      6842      6844      6836      6839      6842      6845
      6837      6836      6839      6840      6837      6836      6839      6841
      6837      6836      6839      6842      6838      6836      6839      6840
      6838      6836      6839      6841      6838      6836      6839      6842
      6839      6842      6845      6846      6839      6842      6845      6847
      6839      6842      6845      6848      6840      6839      6842      6843
      6840      6839      6842      6844      6840      6839      6842      6845
      6841      6839      6842      6843      6841      6839      6842      6844
      6841      6839      6842      6845      6843      6842      6845      6846
      6843      6842      6845      6847      6843      6842      6845      6848
      6844      6842      6845      6846      6844      6842      6845      6847
      6844      6842      6845      6848      6849      6852      6855      6856
      6849      6852      6855      6857      6849      6852      6855      6858
      6850      6849      6852      6853      6850      6849      6852      6854
      6850      6849      6852      6855      6851      6849      6852      6853
      6851      6849      6852      6854      6851      6849      6852      6855
      6852      6855      6858      6859      6852      6855      6858      6860
      6852      6855      6858      6861      6853      6852      6855      6856
      6853      6852      6855      6857      6853      6852      6855      6858
      6854      6852      6855      6856      6854      6852      6855      6857
      6854      6852      6855      6858      6855      6858      6861      6862
      6855      6858      6861      6863      6855      6858      6861      6864
      6856      6855      6858      6859      6856      6855      6858      6860
      6856      6855      6858      6861      6857      6855      6858      6859
      6857      6855      6858      6860      6857      6855      6858      6861
      6858      6861      6864      6865      6858      6861      6864      6866
      6858      6861      6864      6867      6859      6858      6861      6862
      6859      6858      6861      6863      6859      6858      6861      6864
      6860      6858      6861      6862      6860      6858      6861      6863
      6860      6858      6861      6864      6861      6864      6867      6868
      6861      6864      6867      6869      6861      6864      6867      6870
      6862      6861      6864      6865      6862      6861      6864      6866
      6862      6861      6864      6867      6863      6861      6864      6865
      6863      6861      6864      6866      6863      6861      6864      6867
      6864      6867      6870      6871      6864      6867      6870      6872
      6864      6867      6870      6873      6865      6864      6867      6868
      6865      6864      6867      6869      6865      6864      6867      6870
      6866      6864      6867      6868      6866      6864      6867      6869
      6866      6864      6867      6870      6867      6870      6873      6874
      6867      6870      6873      6875      6867      6870      6873      6876
      6868      6867      6870      6871      6868      6867      6870      6872
      6868      6867      6870      6873      6869      6867      6870      6871
      6869      6867      6870      6872      6869      6867      6870      6873
      6870      6873      6876      6877      6870      6873      6876      6878
      6870      6873      6876      6879      6871      6870      6873      6874
      6871      6870      6873      6875      6871      6870      6873      6876
      6872      6870      6873      6874      6872      6870      6873      6875
      6872      6870      6873      6876      6873      6876      6879      6880
      6873      6876      6879      6881      6873      6876      6879      6882
      6874      6873      6876      6877      6874      6873      6876      6878
      6874      6873      6876      6879      6875      6873      6876      6877
      6875      6873      6876      6878      6875      6873      6876      6879
      6876      6879      6882      6883      6876      6879      6882      6884
      6876      6879      6882      6885      6877      6876      6879      6880
      6877      6876      6879      6881      6877      6876      6879      6882
      6878      6876      6879      6880      6878      6876      6879      6881
      6878      6876      6879      6882      6879      6882      6885      6886
      6879      6882      6885      6887      6879      6882      6885      6888
      6880      6879      6882      6883      6880      6879      6882      6884
      6880      6879      6882      6885      6881      6879      6882      6883
      6881      6879      6882      6884      6881      6879      6882      6885
      6882      6885      6888      6889      6882      6885      6888      6890
      6882      6885      6888      6891      6883      6882      6885      6886
      6883      6882      6885      6887      6883      6882      6885      6888
      6884      6882      6885      6886      6884      6882      6885      6887
      6884      6882      6885      6888      6886      6885      6888      6889
      6886      6885      6888      6890      6886      6885      6888      6891
      6887      6885      6888      6889      6887      6885      6888      6890
      6887      6885      6888      6891      6892      6893      6908      6909
      6892      6893      6908      6910      6892      6893      6908      6914
      6893      6892      6896      6897      6893      6892      6896      6898
      6893      6892      6896      6899      6893      6892      6900      6901
      6893      6892      6900      6902      6893      6892      6900      6903
      6893      6892      6904      6905      6893      6892      6904      6906
      6893      6892      6904      6907      6893      6908      6914      6911
      6894      6893      6892      6896      6894      6893      6892      6900
      6894      6893      6892      6904      6894      6893      6908      6909
      6894      6893      6908      6910      6894      6893      6908      6914
      6895      6893      6892      6896      6895      6893      6892      6900
      6895      6893      6892      6904      6895      6893      6908      6909
      6895      6893      6908      6910      6895      6893      6908      6914
      6896      6892      6893      6908      6896      6892      6900      6901
      6896      6892      6900      6902      6896      6892      6900      6903
      6896      6892      6904      6905      6896      6892      6904      6906
      6896      6892      6904      6907      6897      6896      6892      6900
      6897      6896      6892      6904      6898      6896      6892      6900
      6898      6896      6892      6904      6899      6896      6892      6900
      6899      6896      6892      6904      6900      6892      6893      6908
      6900      6892      6904      6905      6900      6892      6904      6906
      6900      6892      6904      6907      6901      6900      6892      6904
      6902      6900      6892      6904      6903      6900      6892      6904
      6904      6892      6893      6908      6908      6914      6911      6912
      6908      6914      6911      6913      6908      6914      6911      6915
      6909      6908      6914      6911      6910      6908      6914      6911
      6911      6915      6916      6917      6911      6915      6916      6918
      6911      6915      6916      6919      6912      6911      6915      6916
      6913      6911      6915      6916      6914      6911      6915      6916
      6915      6916      6919      6920      6915      6916      6919      6921
      6915      6916      6919      6927      6916      6919      6921      6922
      6916      6919      6927      6928      6916      6919      6927      6929
      6916      6919      6927      6930      6917      6916      6919      6920
      6917      6916      6919      6921      6917      6916      6919      6927
      6918      6916      6919      6920      6918      6916      6919      6921
      6918      6916      6919      6927      6919      6921      6922      6923
      6919      6921      6922      6924      6919      6927      6930      6931
      6920      6919      6921      6922      6920      6919      6927      6928
      6920      6919      6927      6929      6920      6919      6927      6930
      6921      6919      6927      6928      6921      6919      6927      6929
      6921      6919      6927      6930      6921      6922      6924      6925
      6921      6922      6924      6926      6921      6922      6924      6936
      6922      6921      6919      6927      6922      6924      6936      6937
      6922      6924      6936      6938      6922      6924      6936      6939
      6923      6922      6924      6925      6923      6922      6924      6926
      6923      6922      6924      6936      6924      6936      6939      6940
      6924      6936      6939      6941      6924      6936      6939      6942
      6925      6924      6936      6937      6925      6924      6936      6938
      6925      6924      6936      6939      6926      6924      6936      6937
      6926      6924      6936      6938      6926      6924      6936      6939
      6927      6930      6931      6932      6927      6930      6931      6933
      6928      6927      6930      6931      6929      6927      6930      6931
      6930      6931      6933      6934      6930      6931      6933      6935
      6930      6931      6933      6983      6931      6933      6983      6984
      6931      6933      6983      6985      6931      6933      6983      6986
      6932      6931      6933      6934      6932      6931      6933      6935
      6932      6931      6933      6983      6933      6983      6986      6987
      6933      6983      6986      6988      6933      6983      6986      6989
      6934      6933      6983      6984      6934      6933      6983      6985
      6934      6933      6983      6986      6935      6933      6983      6984
      6935      6933      6983      6985      6935      6933      6983      6986
      6936      6939      6942      6943      6936      6939      6942      6944
      6936      6939      6942      6945      6937      6936      6939      6940
      6937      6936      6939      6941      6937      6936      6939      6942
      6938      6936      6939      6940      6938      6936      6939      6941
      6938      6936      6939      6942      6939      6942      6945      6946
      6939      6942      6945      6947      6939      6942      6945      6948
      6940      6939      6942      6943      6940      6939      6942      6944
      6940      6939      6942      6945      6941      6939      6942      6943
      6941      6939      6942      6944      6941      6939      6942      6945
      6942      6945      6948      6949      6942      6945      6948      6950
      6942      6945      6948      6951      6943      6942      6945      6946
      6943      6942      6945      6947      6943      6942      6945      6948
      6944      6942      6945      6946      6944      6942      6945      6947
      6944      6942      6945      6948      6945      6948      6951      6952
      6945      6948      6951      6953      6945      6948      6951      6954
      6946      6945      6948      6949      6946      6945      6948      6950
      6946      6945      6948      6951      6947      6945      6948      6949
      6947      6945      6948      6950      6947      6945      6948      6951
      6948      6951      6954      6955      6948      6951      6954      6956
      6949      6948      6951      6952      6949      6948      6951      6953
      6949      6948      6951      6954      6950      6948      6951      6952
      6950      6948      6951      6953      6950      6948      6951      6954
      6951      6954      6956      6957      6951      6954      6956      6958
      6952      6951      6954      6955      6952      6951      6954      6956
      6953      6951      6954      6955      6953      6951      6954      6956
      6954      6956      6958      6959      6954      6956      6958      6960
      6954      6956      6958      6961      6955      6954      6956      6957
      6955      6954      6956      6958      6956      6958      6961      6962
      6956      6958      6961      6963      6956      6958      6961      6964
      6957      6956      6958      6959      6957      6956      6958      6960
      6957      6956      6958      6961      6958      6961      6964      6965
      6958      6961      6964      6966      6958      6961      6964      6967
      6959      6958      6961      6962      6959      6958      6961      6963
      6959      6958      6961      6964      6960      6958      6961      6962
      6960      6958      6961      6963      6960      6958      6961      6964
      6961      6964      6967      6968      6961      6964      6967      6969
      6961      6964      6967      6970      6962      6961      6964      6965
      6962      6961      6964      6966      6962      6961      6964      6967
      6963      6961      6964      6965      6963      6961      6964      6966
      6963      6961      6964      6967      6964      6967      6970      6971
      6964      6967      6970      6972      6964      6967      6970      6973
      6965      6964      6967      6968      6965      6964      6967      6969
      6965      6964      6967      6970      6966      6964      6967      6968
      6966      6964      6967      6969      6966      6964      6967      6970
      6967      6970      6973      6974      6967      6970      6973      6975
      6967      6970      6973      6976      6968      6967      6970      6971
      6968      6967      6970      6972      6968      6967      6970      6973
      6969      6967      6970      6971      6969      6967      6970      6972
      6969      6967      6970      6973      6970      6973      6976      6977
      6970      6973      6976      6978      6970      6973      6976      6979
      6971      6970      6973      6974      6971      6970      6973      6975
      6971      6970      6973      6976      6972      6970      6973      6974
      6972      6970      6973      6975      6972      6970      6973      6976
      6973      6976      6979      6980      6973      6976      6979      6981
      6973      6976      6979      6982      6974      6973      6976      6977
      6974      6973      6976      6978      6974      6973      6976      6979
      6975      6973      6976      6977      6975      6973      6976      6978
      6975      6973      6976      6979      6977      6976      6979      6980
      6977      6976      6979      6981      6977      6976      6979      6982
      6978      6976      6979      6980      6978      6976      6979      6981
      6978      6976      6979      6982      6983      6986      6989      6990
      6983      6986      6989      6991      6983      6986      6989      6992
      6984      6983      6986      6987      6984      6983      6986      6988
      6984      6983      6986      6989      6985      6983      6986      6987
      6985      6983      6986      6988      6985      6983      6986      6989
      6986      6989      6992      6993      6986      6989      6992      6994
      6986      6989      6992      6995      6987      6986      6989      6990
      6987      6986      6989      6991      6987      6986      6989      6992
      6988      6986      6989      6990      6988      6986      6989      6991
      6988      6986      6989      6992      6989      6992      6995      6996
      6989      6992      6995      6997      6989      6992      6995      6998
      6990      6989      6992      6993      6990      6989      6992      6994
      6990      6989      6992      6995      6991      6989      6992      6993
      6991      6989      6992      6994      6991      6989      6992      6995
      6992      6995      6998      6999      6992      6995      6998      7000
      6992      6995      6998      7001      6993      6992      6995      6996
      6993      6992      6995      6997      6993      6992      6995      6998
      6994      6992      6995      6996      6994      6992      6995      6997
      6994      6992      6995      6998      6995      6998      7001      7002
      6995      6998      7001      7003      6995      6998      7001      7004
      6996      6995      6998      6999      6996      6995      6998      7000
      6996      6995      6998      7001      6997      6995      6998      6999
      6997      6995      6998      7000      6997      6995      6998      7001
      6998      7001      7004      7005      6998      7001      7004      7006
      6998      7001      7004      7007      6999      6998      7001      7002
      6999      6998      7001      7003      6999      6998      7001      7004
      7000      6998      7001      7002      7000      6998      7001      7003
      7000      6998      7001      7004      7001      7004      7007      7008
      7001      7004      7007      7009      7001      7004      7007      7010
      7002      7001      7004      7005      7002      7001      7004      7006
      7002      7001      7004      7007      7003      7001      7004      7005
      7003      7001      7004      7006      7003      7001      7004      7007
      7004      7007      7010      7011      7004      7007      7010      7012
      7004      7007      7010      7013      7005      7004      7007      7008
      7005      7004      7007      7009      7005      7004      7007      7010
      7006      7004      7007      7008      7006      7004      7007      7009
      7006      7004      7007      7010      7007      7010      7013      7014
      7007      7010      7013      7015      7007      7010      7013      7016
      7008      7007      7010      7011      7008      7007      7010      7012
      7008      7007      7010      7013      7009      7007      7010      7011
      7009      7007      7010      7012      7009      7007      7010      7013
      7010      7013      7016      7017      7010      7013      7016      7018
      7010      7013      7016      7019      7011      7010      7013      7014
      7011      7010      7013      7015      7011      7010      7013      7016
      7012      7010      7013      7014      7012      7010      7013      7015
      7012      7010      7013      7016      7013      7016      7019      7020
      7013      7016      7019      7021      7013      7016      7019      7022
      7014      7013      7016      7017      7014      7013      7016      7018
      7014      7013      7016      7019      7015      7013      7016      7017
      7015      7013      7016      7018      7015      7013      7016      7019
      7016      7019      7022      7023      7016      7019      7022      7024
      7016      7019      7022      7025      7017      7016      7019      7020
      7017      7016      7019      7021      7017      7016      7019      7022
      7018      7016      7019      7020      7018      7016      7019      7021
      7018      7016      7019      7022      7020      7019      7022      7023
      7020      7019      7022      7024      7020      7019      7022      7025
      7021      7019      7022      7023      7021      7019      7022      7024
      7021      7019      7022      7025      7026      7030      7032      7033
      7026      7030      7032      7034      7026      7030      7035      7036
      7026      7030      7035      7037      7026      7030      7035      7041
      7027      7026      7030      7031      7027      7026      7030      7032
      7027      7026      7030      7035      7028      7026      7030      7031
      7028      7026      7030      7032      7028      7026      7030      7035
      7029      7026      7030      7031      7029      7026      7030      7032
      7029      7026      7030      7035      7030      7035      7041      7038
      7031      7030      7032      7033      7031      7030      7032      7034
      7031      7030      7035      7036      7031      7030      7035      7037
      7031      7030      7035      7041      7032      7030      7035      7036
      7032      7030      7035      7037      7032      7030      7035      7041
      7033      7032      7030      7035      7034      7032      7030      7035
      7035      7041      7038      7039      7035      7041      7038      7040
      7035      7041      7038      7042      7036      7035      7041      7038
      7037      7035      7041      7038      7038      7042      7043      7044
      7038      7042      7043      7045      7038      7042      7043      7046
      7039      7038      7042      7043      7040      7038      7042      7043
      7041      7038      7042      7043      7042      7043      7046      7047
      7042      7043      7046      7048      7042      7043      7046      7054
      7043      7046      7048      7049      7043      7046      7054      7055
      7043      7046      7054      7056      7043      7046      7054      7057
      7044      7043      7046      7047      7044      7043      7046      7048
      7044      7043      7046      7054      7045      7043      7046      7047
      7045      7043      7046      7048      7045      7043      7046      7054
      7046      7048      7049      7050      7046      7048      7049      7051
      7046      7054      7057      7058      7047      7046      7048      7049
      7047      7046      7054      7055      7047      7046      7054      7056
      7047      7046      7054      7057      7048      7046      7054      7055
      7048      7046      7054      7056      7048      7046      7054      7057
      7048      7049      7051      7052      7048      7049      7051      7053
      7048      7049      7051      7063      7049      7048      7046      7054
      7049      7051      7063      7064      7049      7051      7063      7065
      7049      7051      7063      7066      7050      7049      7051      7052
      7050      7049      7051      7053      7050      7049      7051      7063
      7051      7063      7066      7067      7051      7063      7066      7068
      7051      7063      7066      7069      7052      7051      7063      7064
      7052      7051      7063      7065      7052      7051      7063      7066
      7053      7051      7063      7064      7053      7051      7063      7065
      7053      7051      7063      7066      7054      7057      7058      7059
      7054      7057      7058      7060      7055      7054      7057      7058
      7056      7054      7057      7058      7057      7058      7060      7061
      7057      7058      7060      7062      7057      7058      7060      7110
      7058      7060      7110      7111      7058      7060      7110      7112
      7058      7060      7110      7113      7059      7058      7060      7061
      7059      7058      7060      7062      7059      7058      7060      7110
      7060      7110      7113      7114      7060      7110      7113      7115
      7060      7110      7113      7116      7061      7060      7110      7111
      7061      7060      7110      7112      7061      7060      7110      7113
      7062      7060      7110      7111      7062      7060      7110      7112
      7062      7060      7110      7113      7063      7066      7069      7070
      7063      7066      7069      7071      7063      7066      7069      7072
      7064      7063      7066      7067      7064      7063      7066      7068
      7064      7063      7066      7069      7065      7063      7066      7067
      7065      7063      7066      7068      7065      7063      7066      7069
      7066      7069      7072      7073      7066      7069      7072      7074
      7066      7069      7072      7075      7067      7066      7069      7070
      7067      7066      7069      7071      7067      7066      7069      7072
      7068      7066      7069      7070      7068      7066      7069      7071
      7068      7066      7069      7072      7069      7072      7075      7076
      7069      7072      7075      7077      7069      7072      7075      7078
      7070      7069      7072      7073      7070      7069      7072      7074
      7070      7069      7072      7075      7071      7069      7072      7073
      7071      7069      7072      7074      7071      7069      7072      7075
      7072      7075      7078      7079      7072      7075      7078      7080
      7072      7075      7078      7081      7073      7072      7075      7076
      7073      7072      7075      7077      7073      7072      7075      7078
      7074      7072      7075      7076      7074      7072      7075      7077
      7074      7072      7075      7078      7075      7078      7081      7082
      7075      7078      7081      7083      7076      7075      7078      7079
      7076      7075      7078      7080      7076      7075      7078      7081
      7077      7075      7078      7079      7077      7075      7078      7080
      7077      7075      7078      7081      7078      7081      7083      7084
      7078      7081      7083      7085      7079      7078      7081      7082
      7079      7078      7081      7083      7080      7078      7081      7082
      7080      7078      7081      7083      7081      7083      7085      7086
      7081      7083      7085      7087      7081      7083      7085      7088
      7082      7081      7083      7084      7082      7081      7083      7085
      7083      7085      7088      7089      7083      7085      7088      7090
      7083      7085      7088      7091      7084      7083      7085      7086
      7084      7083      7085      7087      7084      7083      7085      7088
      7085      7088      7091      7092      7085      7088      7091      7093
      7085      7088      7091      7094      7086      7085      7088      7089
      7086      7085      7088      7090      7086      7085      7088      7091
      7087      7085      7088      7089      7087      7085      7088      7090
      7087      7085      7088      7091      7088      7091      7094      7095
      7088      7091      7094      7096      7088      7091      7094      7097
      7089      7088      7091      7092      7089      7088      7091      7093
      7089      7088      7091      7094      7090      7088      7091      7092
      7090      7088      7091      7093      7090      7088      7091      7094
      7091      7094      7097      7098      7091      7094      7097      7099
      7091      7094      7097      7100      7092      7091      7094      7095
      7092      7091      7094      7096      7092      7091      7094      7097
      7093      7091      7094      7095      7093      7091      7094      7096
      7093      7091      7094      7097      7094      7097      7100      7101
      7094      7097      7100      7102      7094      7097      7100      7103
      7095      7094      7097      7098      7095      7094      7097      7099
      7095      7094      7097      7100      7096      7094      7097      7098
      7096      7094      7097      7099      7096      7094      7097      7100
      7097      7100      7103      7104      7097      7100      7103      7105
      7097      7100      7103      7106      7098      7097      7100      7101
      7098      7097      7100      7102      7098      7097      7100      7103
      7099      7097      7100      7101      7099      7097      7100      7102
      7099      7097      7100      7103      7100      7103      7106      7107
      7100      7103      7106      7108      7100      7103      7106      7109
      7101      7100      7103      7104      7101      7100      7103      7105
      7101      7100      7103      7106      7102      7100      7103      7104
      7102      7100      7103      7105      7102      7100      7103      7106
      7104      7103      7106      7107      7104      7103      7106      7108
      7104      7103      7106      7109      7105      7103      7106      7107
      7105      7103      7106      7108      7105      7103      7106      7109
      7110      7113      7116      7117      7110      7113      7116      7118
      7110      7113      7116      7119      7111      7110      7113      7114
      7111      7110      7113      7115      7111      7110      7113      7116
      7112      7110      7113      7114      7112      7110      7113      7115
      7112      7110      7113      7116      7113      7116      7119      7120
      7113      7116      7119      7121      7113      7116      7119      7122
      7114      7113      7116      7117      7114      7113      7116      7118
      7114      7113      7116      7119      7115      7113      7116      7117
      7115      7113      7116      7118      7115      7113      7116      7119
      7116      7119      7122      7123      7116      7119      7122      7124
      7116      7119      7122      7125      7117      7116      7119      7120
      7117      7116      7119      7121      7117      7116      7119      7122
      7118      7116      7119      7120      7118      7116      7119      7121
      7118      7116      7119      7122      7119      7122      7125      7126
      7119      7122      7125      7127      7119      7122      7125      7128
      7120      7119      7122      7123      7120      7119      7122      7124
      7120      7119      7122      7125      7121      7119      7122      7123
      7121      7119      7122      7124      7121      7119      7122      7125
      7122      7125      7128      7129      7122      7125      7128      7130
      7122      7125      7128      7131      7123      7122      7125      7126
      7123      7122      7125      7127      7123      7122      7125      7128
      7124      7122      7125      7126      7124      7122      7125      7127
      7124      7122      7125      7128      7125      7128      7131      7132
      7125      7128      7131      7133      7125      7128      7131      7134
      7126      7125      7128      7129      7126      7125      7128      7130
      7126      7125      7128      7131      7127      7125      7128      7129
      7127      7125      7128      7130      7127      7125      7128      7131
      7128      7131      7134      7135      7128      7131      7134      7136
      7128      7131      7134      7137      7129      7128      7131      7132
      7129      7128      7131      7133      7129      7128      7131      7134
      7130      7128      7131      7132      7130      7128      7131      7133
      7130      7128      7131      7134      7131      7134      7137      7138
      7131      7134      7137      7139      7131      7134      7137      7140
      7132      7131      7134      7135      7132      7131      7134      7136
      7132      7131      7134      7137      7133      7131      7134      7135
      7133      7131      7134      7136      7133      7131      7134      7137
      7134      7137      7140      7141      7134      7137      7140      7142
      7134      7137      7140      7143      7135      7134      7137      7138
      7135      7134      7137      7139      7135      7134      7137      7140
      7136      7134      7137      7138      7136      7134      7137      7139
      7136      7134      7137      7140      7137      7140      7143      7144
      7137      7140      7143      7145      7137      7140      7143      7146
      7138      7137      7140      7141      7138      7137      7140      7142
      7138      7137      7140      7143      7139      7137      7140      7141
      7139      7137      7140      7142      7139      7137      7140      7143
      7140      7143      7146      7147      7140      7143      7146      7148
      7140      7143      7146      7149      7141      7140      7143      7144
      7141      7140      7143      7145      7141      7140      7143      7146
      7142      7140      7143      7144      7142      7140      7143      7145
      7142      7140      7143      7146      7143      7146      7149      7150
      7143      7146      7149      7151      7143      7146      7149      7152
      7144      7143      7146      7147      7144      7143      7146      7148
      7144      7143      7146      7149      7145      7143      7146      7147
      7145      7143      7146      7148      7145      7143      7146      7149
      7147      7146      7149      7150      7147      7146      7149      7151
      7147      7146      7149      7152      7148      7146      7149      7150
      7148      7146      7149      7151      7148      7146      7149      7152
      7153      7154      7169      7170      7153      7154      7169      7171
      7153      7154      7169      7175      7154      7153      7157      7158
      7154      7153      7157      7159      7154      7153      7157      7160
      7154      7153      7161      7162      7154      7153      7161      7163
      7154      7153      7161      7164      7154      7153      7165      7166
      7154      7153      7165      7167      7154      7153      7165      7168
      7154      7169      7175      7172      7155      7154      7153      7157
      7155      7154      7153      7161      7155      7154      7153      7165
      7155      7154      7169      7170      7155      7154      7169      7171
      7155      7154      7169      7175      7156      7154      7153      7157
      7156      7154      7153      7161      7156      7154      7153      7165
      7156      7154      7169      7170      7156      7154      7169      7171
      7156      7154      7169      7175      7157      7153      7154      7169
      7157      7153      7161      7162      7157      7153      7161      7163
      7157      7153      7161      7164      7157      7153      7165      7166
      7157      7153      7165      7167      7157      7153      7165      7168
      7158      7157      7153      7161      7158      7157      7153      7165
      7159      7157      7153      7161      7159      7157      7153      7165
      7160      7157      7153      7161      7160      7157      7153      7165
      7161      7153      7154      7169      7161      7153      7165      7166
      7161      7153      7165      7167      7161      7153      7165      7168
      7162      7161      7153      7165      7163      7161      7153      7165
      7164      7161      7153      7165      7165      7153      7154      7169
      7169      7175      7172      7173      7169      7175      7172      7174
      7169      7175      7172      7176      7170      7169      7175      7172
      7171      7169      7175      7172      7172      7176      7177      7178
      7172      7176      7177      7179      7172      7176      7177      7180
      7173      7172      7176      7177      7174      7172      7176      7177
      7175      7172      7176      7177      7176      7177      7180      7181
      7176      7177      7180      7182      7176      7177      7180      7188
      7177      7180      7182      7183      7177      7180      7188      7189
      7177      7180      7188      7190      7177      7180      7188      7191
      7178      7177      7180      7181      7178      7177      7180      7182
      7178      7177      7180      7188      7179      7177      7180      7181
      7179      7177      7180      7182      7179      7177      7180      7188
      7180      7182      7183      7184      7180      7182      7183      7185
      7180      7188      7191      7192      7181      7180      7182      7183
      7181      7180      7188      7189      7181      7180      7188      7190
      7181      7180      7188      7191      7182      7180      7188      7189
      7182      7180      7188      7190      7182      7180      7188      7191
      7182      7183      7185      7186      7182      7183      7185      7187
      7182      7183      7185      7197      7183      7182      7180      7188
      7183      7185      7197      7198      7183      7185      7197      7199
      7183      7185      7197      7200      7184      7183      7185      7186
      7184      7183      7185      7187      7184      7183      7185      7197
      7185      7197      7200      7201      7185      7197      7200      7202
      7185      7197      7200      7203      7186      7185      7197      7198
      7186      7185      7197      7199      7186      7185      7197      7200
      7187      7185      7197      7198      7187      7185      7197      7199
      7187      7185      7197      7200      7188      7191      7192      7193
      7188      7191      7192      7194      7189      7188      7191      7192
      7190      7188      7191      7192      7191      7192      7194      7195
      7191      7192      7194      7196      7191      7192      7194      7244
      7192      7194      7244      7245      7192      7194      7244      7246
      7192      7194      7244      7247      7193      7192      7194      7195
      7193      7192      7194      7196      7193      7192      7194      7244
      7194      7244      7247      7248      7194      7244      7247      7249
      7194      7244      7247      7250      7195      7194      7244      7245
      7195      7194      7244      7246      7195      7194      7244      7247
      7196      7194      7244      7245      7196      7194      7244      7246
      7196      7194      7244      7247      7197      7200      7203      7204
      7197      7200      7203      7205      7197      7200      7203      7206
      7198      7197      7200      7201      7198      7197      7200      7202
      7198      7197      7200      7203      7199      7197      7200      7201
      7199      7197      7200      7202      7199      7197      7200      7203
      7200      7203      7206      7207      7200      7203      7206      7208
      7200      7203      7206      7209      7201      7200      7203      7204
      7201      7200      7203      7205      7201      7200      7203      7206
      7202      7200      7203      7204      7202      7200      7203      7205
      7202      7200      7203      7206      7203      7206      7209      7210
      7203      7206      7209      7211      7203      7206      7209      7212
      7204      7203      7206      7207      7204      7203      7206      7208
      7204      7203      7206      7209      7205      7203      7206      7207
      7205      7203      7206      7208      7205      7203      7206      7209
      7206      7209      7212      7213      7206      7209      7212      7214
      7206      7209      7212      7215      7207      7206      7209      7210
      7207      7206      7209      7211      7207      7206      7209      7212
      7208      7206      7209      7210      7208      7206      7209      7211
      7208      7206      7209      7212      7209      7212      7215      7216
      7209      7212      7215      7217      7210      7209      7212      7213
      7210      7209      7212      7214      7210      7209      7212      7215
      7211      7209      7212      7213      7211      7209      7212      7214
      7211      7209      7212      7215      7212      7215      7217      7218
      7212      7215      7217      7219      7213      7212      7215      7216
      7213      7212      7215      7217      7214      7212      7215      7216
      7214      7212      7215      7217      7215      7217      7219      7220
      7215      7217      7219      7221      7215      7217      7219      7222
      7216      7215      7217      7218      7216      7215      7217      7219
      7217      7219      7222      7223      7217      7219      7222      7224
      7217      7219      7222      7225      7218      7217      7219      7220
      7218      7217      7219      7221      7218      7217      7219      7222
      7219      7222      7225      7226      7219      7222      7225      7227
      7219      7222      7225      7228      7220      7219      7222      7223
      7220      7219      7222      7224      7220      7219      7222      7225
      7221      7219      7222      7223      7221      7219      7222      7224
      7221      7219      7222      7225      7222      7225      7228      7229
      7222      7225      7228      7230      7222      7225      7228      7231
      7223      7222      7225      7226      7223      7222      7225      7227
      7223      7222      7225      7228      7224      7222      7225      7226
      7224      7222      7225      7227      7224      7222      7225      7228
      7225      7228      7231      7232      7225      7228      7231      7233
      7225      7228      7231      7234      7226      7225      7228      7229
      7226      7225      7228      7230      7226      7225      7228      7231
      7227      7225      7228      7229      7227      7225      7228      7230
      7227      7225      7228      7231      7228      7231      7234      7235
      7228      7231      7234      7236      7228      7231      7234      7237
      7229      7228      7231      7232      7229      7228      7231      7233
      7229      7228      7231      7234      7230      7228      7231      7232
      7230      7228      7231      7233      7230      7228      7231      7234
      7231      7234      7237      7238      7231      7234      7237      7239
      7231      7234      7237      7240      7232      7231      7234      7235
      7232      7231      7234      7236      7232      7231      7234      7237
      7233      7231      7234      7235      7233      7231      7234      7236
      7233      7231      7234      7237      7234      7237      7240      7241
      7234      7237      7240      7242      7234      7237      7240      7243
      7235      7234      7237      7238      7235      7234      7237      7239
      7235      7234      7237      7240      7236      7234      7237      7238
      7236      7234      7237      7239      7236      7234      7237      7240
      7238      7237      7240      7241      7238      7237      7240      7242
      7238      7237      7240      7243      7239      7237      7240      7241
      7239      7237      7240      7242      7239      7237      7240      7243
      7244      7247      7250      7251      7244      7247      7250      7252
      7244      7247      7250      7253      7245      7244      7247      7248
      7245      7244      7247      7249      7245      7244      7247      7250
      7246      7244      7247      7248      7246      7244      7247      7249
      7246      7244      7247      7250      7247      7250      7253      7254
      7247      7250      7253      7255      7247      7250      7253      7256
      7248      7247      7250      7251      7248      7247      7250      7252
      7248      7247      7250      7253      7249      7247      7250      7251
      7249      7247      7250      7252      7249      7247      7250      7253
      7250      7253      7256      7257      7250      7253      7256      7258
      7250      7253      7256      7259      7251      7250      7253      7254
      7251      7250      7253      7255      7251      7250      7253      7256
      7252      7250      7253      7254      7252      7250      7253      7255
      7252      7250      7253      7256      7253      7256      7259      7260
      7253      7256      7259      7261      7253      7256      7259      7262
      7254      7253      7256      7257      7254      7253      7256      7258
      7254      7253      7256      7259      7255      7253      7256      7257
      7255      7253      7256      7258      7255      7253      7256      7259
      7256      7259      7262      7263      7256      7259      7262      7264
      7256      7259      7262      7265      7257      7256      7259      7260
      7257      7256      7259      7261      7257      7256      7259      7262
      7258      7256      7259      7260      7258      7256      7259      7261
      7258      7256      7259      7262      7259      7262      7265      7266
      7259      7262      7265      7267      7259      7262      7265      7268
      7260      7259      7262      7263      7260      7259      7262      7264
      7260      7259      7262      7265      7261      7259      7262      7263
      7261      7259      7262      7264      7261      7259      7262      7265
      7262      7265      7268      7269      7262      7265      7268      7270
      7262      7265      7268      7271      7263      7262      7265      7266
      7263      7262      7265      7267      7263      7262      7265      7268
      7264      7262      7265      7266      7264      7262      7265      7267
      7264      7262      7265      7268      7265      7268      7271      7272
      7265      7268      7271      7273      7265      7268      7271      7274
      7266      7265      7268      7269      7266      7265      7268      7270
      7266      7265      7268      7271      7267      7265      7268      7269
      7267      7265      7268      7270      7267      7265      7268      7271
      7268      7271      7274      7275      7268      7271      7274      7276
      7268      7271      7274      7277      7269      7268      7271      7272
      7269      7268      7271      7273      7269      7268      7271      7274
      7270      7268      7271      7272      7270      7268      7271      7273
      7270      7268      7271      7274      7271      7274      7277      7278
      7271      7274      7277      7279      7271      7274      7277      7280
      7272      7271      7274      7275      7272      7271      7274      7276
      7272      7271      7274      7277      7273      7271      7274      7275
      7273      7271      7274      7276      7273      7271      7274      7277
      7274      7277      7280      7281      7274      7277      7280      7282
      7274      7277      7280      7283      7275      7274      7277      7278
      7275      7274      7277      7279      7275      7274      7277      7280
      7276      7274      7277      7278      7276      7274      7277      7279
      7276      7274      7277      7280      7277      7280      7283      7284
      7277      7280      7283      7285      7277      7280      7283      7286
      7278      7277      7280      7281      7278      7277      7280      7282
      7278      7277      7280      7283      7279      7277      7280      7281
      7279      7277      7280      7282      7279      7277      7280      7283
      7281      7280      7283      7284      7281      7280      7283      7285
      7281      7280      7283      7286      7282      7280      7283      7284
      7282      7280      7283      7285      7282      7280      7283      7286
      7287      7288      7303      7304      7287      7288      7303      7305
      7287      7288      7303      7309      7288      7287      7291      7292
      7288      7287      7291      7293      7288      7287      7291      7294
      7288      7287      7295      7296      7288      7287      7295      7297
      7288      7287      7295      7298      7288      7287      7299      7300
      7288      7287      7299      7301      7288      7287      7299      7302
      7288      7303      7309      7306      7289      7288      7287      7291
      7289      7288      7287      7295      7289      7288      7287      7299
      7289      7288      7303      7304      7289      7288      7303      7305
      7289      7288      7303      7309      7290      7288      7287      7291
      7290      7288      7287      7295      7290      7288      7287      7299
      7290      7288      7303      7304      7290      7288      7303      7305
      7290      7288      7303      7309      7291      7287      7288      7303
      7291      7287      7295      7296      7291      7287      7295      7297
      7291      7287      7295      7298      7291      7287      7299      7300
      7291      7287      7299      7301      7291      7287      7299      7302
      7292      7291      7287      7295      7292      7291      7287      7299
      7293      7291      7287      7295      7293      7291      7287      7299
      7294      7291      7287      7295      7294      7291      7287      7299
      7295      7287      7288      7303      7295      7287      7299      7300
      7295      7287      7299      7301      7295      7287      7299      7302
      7296      7295      7287      7299      7297      7295      7287      7299
      7298      7295      7287      7299      7299      7287      7288      7303
      7303      7309      7306      7307      7303      7309      7306      7308
      7303      7309      7306      7310      7304      7303      7309      7306
      7305      7303      7309      7306      7306      7310      7311      7312
      7306      7310      7311      7313      7306      7310      7311      7314
      7307      7306      7310      7311      7308      7306      7310      7311
      7309      7306      7310      7311      7310      7311      7314      7315
      7310      7311      7314      7316      7310      7311      7314      7322
      7311      7314      7316      7317      7311      7314      7322      7323
      7311      7314      7322      7324      7311      7314      7322      7325
      7312      7311      7314      7315      7312      7311      7314      7316
      7312      7311      7314      7322      7313      7311      7314      7315
      7313      7311      7314      7316      7313      7311      7314      7322
      7314      7316      7317      7318      7314      7316      7317      7319
      7314      7322      7325      7326      7315      7314      7316      7317
      7315      7314      7322      7323      7315      7314      7322      7324
      7315      7314      7322      7325      7316      7314      7322      7323
      7316      7314      7322      7324      7316      7314      7322      7325
      7316      7317      7319      7320      7316      7317      7319      7321
      7316      7317      7319      7331      7317      7316      7314      7322
      7317      7319      7331      7332      7317      7319      7331      7333
      7317      7319      7331      7334      7318      7317      7319      7320
      7318      7317      7319      7321      7318      7317      7319      7331
      7319      7331      7334      7335      7319      7331      7334      7336
      7319      7331      7334      7337      7320      7319      7331      7332
      7320      7319      7331      7333      7320      7319      7331      7334
      7321      7319      7331      7332      7321      7319      7331      7333
      7321      7319      7331      7334      7322      7325      7326      7327
      7322      7325      7326      7328      7323      7322      7325      7326
      7324      7322      7325      7326      7325      7326      7328      7329
      7325      7326      7328      7330      7325      7326      7328      7378
      7326      7328      7378      7379      7326      7328      7378      7380
      7326      7328      7378      7381      7327      7326      7328      7329
      7327      7326      7328      7330      7327      7326      7328      7378
      7328      7378      7381      7382      7328      7378      7381      7383
      7328      7378      7381      7384      7329      7328      7378      7379
      7329      7328      7378      7380      7329      7328      7378      7381
      7330      7328      7378      7379      7330      7328      7378      7380
      7330      7328      7378      7381      7331      7334      7337      7338
      7331      7334      7337      7339      7331      7334      7337      7340
      7332      7331      7334      7335      7332      7331      7334      7336
      7332      7331      7334      7337      7333      7331      7334      7335
      7333      7331      7334      7336      7333      7331      7334      7337
      7334      7337      7340      7341      7334      7337      7340      7342
      7334      7337      7340      7343      7335      7334      7337      7338
      7335      7334      7337      7339      7335      7334      7337      7340
      7336      7334      7337      7338      7336      7334      7337      7339
      7336      7334      7337      7340      7337      7340      7343      7344
      7337      7340      7343      7345      7337      7340      7343      7346
      7338      7337      7340      7341      7338      7337      7340      7342
      7338      7337      7340      7343      7339      7337      7340      7341
      7339      7337      7340      7342      7339      7337      7340      7343
      7340      7343      7346      7347      7340      7343      7346      7348
      7340      7343      7346      7349      7341      7340      7343      7344
      7341      7340      7343      7345      7341      7340      7343      7346
      7342      7340      7343      7344      7342      7340      7343      7345
      7342      7340      7343      7346      7343      7346      7349      7350
      7343      7346      7349      7351      7344      7343      7346      7347
      7344      7343      7346      7348      7344      7343      7346      7349
      7345      7343      7346      7347      7345      7343      7346      7348
      7345      7343      7346      7349      7346      7349      7351      7352
      7346      7349      7351      7353      7347      7346      7349      7350
      7347      7346      7349      7351      7348      7346      7349      7350
      7348      7346      7349      7351      7349      7351      7353      7354
      7349      7351      7353      7355      7349      7351      7353      7356
      7350      7349      7351      7352      7350      7349      7351      7353
      7351      7353      7356      7357      7351      7353      7356      7358
      7351      7353      7356      7359      7352      7351      7353      7354
      7352      7351      7353      7355      7352      7351      7353      7356
      7353      7356      7359      7360      7353      7356      7359      7361
      7353      7356      7359      7362      7354      7353      7356      7357
      7354      7353      7356      7358      7354      7353      7356      7359
      7355      7353      7356      7357      7355      7353      7356      7358
      7355      7353      7356      7359      7356      7359      7362      7363
      7356      7359      7362      7364      7356      7359      7362      7365
      7357      7356      7359      7360      7357      7356      7359      7361
      7357      7356      7359      7362      7358      7356      7359      7360
      7358      7356      7359      7361      7358      7356      7359      7362
      7359      7362      7365      7366      7359      7362      7365      7367
      7359      7362      7365      7368      7360      7359      7362      7363
      7360      7359      7362      7364      7360      7359      7362      7365
      7361      7359      7362      7363      7361      7359      7362      7364
      7361      7359      7362      7365      7362      7365      7368      7369
      7362      7365      7368      7370      7362      7365      7368      7371
      7363      7362      7365      7366      7363      7362      7365      7367
      7363      7362      7365      7368      7364      7362      7365      7366
      7364      7362      7365      7367      7364      7362      7365      7368
      7365      7368      7371      7372      7365      7368      7371      7373
      7365      7368      7371      7374      7366      7365      7368      7369
      7366      7365      7368      7370      7366      7365      7368      7371
      7367      7365      7368      7369      7367      7365      7368      7370
      7367      7365      7368      7371      7368      7371      7374      7375
      7368      7371      7374      7376      7368      7371      7374      7377
      7369      7368      7371      7372      7369      7368      7371      7373
      7369      7368      7371      7374      7370      7368      7371      7372
      7370      7368      7371      7373      7370      7368      7371      7374
      7372      7371      7374      7375      7372      7371      7374      7376
      7372      7371      7374      7377      7373      7371      7374      7375
      7373      7371      7374      7376      7373      7371      7374      7377
      7378      7381      7384      7385      7378      7381      7384      7386
      7378      7381      7384      7387      7379      7378      7381      7382
      7379      7378      7381      7383      7379      7378      7381      7384
      7380      7378      7381      7382      7380      7378      7381      7383
      7380      7378      7381      7384      7381      7384      7387      7388
      7381      7384      7387      7389      7381      7384      7387      7390
      7382      7381      7384      7385      7382      7381      7384      7386
      7382      7381      7384      7387      7383      7381      7384      7385
      7383      7381      7384      7386      7383      7381      7384      7387
      7384      7387      7390      7391      7384      7387      7390      7392
      7384      7387      7390      7393      7385      7384      7387      7388
      7385      7384      7387      7389      7385      7384      7387      7390
      7386      7384      7387      7388      7386      7384      7387      7389
      7386      7384      7387      7390      7387      7390      7393      7394
      7387      7390      7393      7395      7387      7390      7393      7396
      7388      7387      7390      7391      7388      7387      7390      7392
      7388      7387      7390      7393      7389      7387      7390      7391
      7389      7387      7390      7392      7389      7387      7390      7393
      7390      7393      7396      7397      7390      7393      7396      7398
      7390      7393      7396      7399      7391      7390      7393      7394
      7391      7390      7393      7395      7391      7390      7393      7396
      7392      7390      7393      7394      7392      7390      7393      7395
      7392      7390      7393      7396      7393      7396      7399      7400
      7393      7396      7399      7401      7393      7396      7399      7402
      7394      7393      7396      7397      7394      7393      7396      7398
      7394      7393      7396      7399      7395      7393      7396      7397
      7395      7393      7396      7398      7395      7393      7396      7399
      7396      7399      7402      7403      7396      7399      7402      7404
      7396      7399      7402      7405      7397      7396      7399      7400
      7397      7396      7399      7401      7397      7396      7399      7402
      7398      7396      7399      7400      7398      7396      7399      7401
      7398      7396      7399      7402      7399      7402      7405      7406
      7399      7402      7405      7407      7399      7402      7405      7408
      7400      7399      7402      7403      7400      7399      7402      7404
      7400      7399      7402      7405      7401      7399      7402      7403
      7401      7399      7402      7404      7401      7399      7402      7405
      7402      7405      7408      7409      7402      7405      7408      7410
      7402      7405      7408      7411      7403      7402      7405      7406
      7403      7402      7405      7407      7403      7402      7405      7408
      7404      7402      7405      7406      7404      7402      7405      7407
      7404      7402      7405      7408      7405      7408      7411      7412
      7405      7408      7411      7413      7405      7408      7411      7414
      7406      7405      7408      7409      7406      7405      7408      7410
      7406      7405      7408      7411      7407      7405      7408      7409
      7407      7405      7408      7410      7407      7405      7408      7411
      7408      7411      7414      7415      7408      7411      7414      7416
      7408      7411      7414      7417      7409      7408      7411      7412
      7409      7408      7411      7413      7409      7408      7411      7414
      7410      7408      7411      7412      7410      7408      7411      7413
      7410      7408      7411      7414      7411      7414      7417      7418
      7411      7414      7417      7419      7411      7414      7417      7420
      7412      7411      7414      7415      7412      7411      7414      7416
      7412      7411      7414      7417      7413      7411      7414      7415
      7413      7411      7414      7416      7413      7411      7414      7417
      7415      7414      7417      7418      7415      7414      7417      7419
      7415      7414      7417      7420      7416      7414      7417      7418
      7416      7414      7417      7419      7416      7414      7417      7420
      7421      7425      7427      7428      7421      7425      7427      7429
      7421      7425      7430      7431      7421      7425      7430      7432
      7421      7425      7430      7436      7422      7421      7425      7426
      7422      7421      7425      7427      7422      7421      7425      7430
      7423      7421      7425      7426      7423      7421      7425      7427
      7423      7421      7425      7430      7424      7421      7425      7426
      7424      7421      7425      7427      7424      7421      7425      7430
      7425      7430      7436      7433      7426      7425      7427      7428
      7426      7425      7427      7429      7426      7425      7430      7431
      7426      7425      7430      7432      7426      7425      7430      7436
      7427      7425      7430      7431      7427      7425      7430      7432
      7427      7425      7430      7436      7428      7427      7425      7430
      7429      7427      7425      7430      7430      7436      7433      7434
      7430      7436      7433      7435      7430      7436      7433      7437
      7431      7430      7436      7433      7432      7430      7436      7433
      7433      7437      7438      7439      7433      7437      7438      7440
      7433      7437      7438      7441      7434      7433      7437      7438
      7435      7433      7437      7438      7436      7433      7437      7438
      7437      7438      7441      7442      7437      7438      7441      7443
      7437      7438      7441      7449      7438      7441      7443      7444
      7438      7441      7449      7450      7438      7441      7449      7451
      7438      7441      7449      7452      7439      7438      7441      7442
      7439      7438      7441      7443      7439      7438      7441      7449
      7440      7438      7441      7442      7440      7438      7441      7443
      7440      7438      7441      7449      7441      7443      7444      7445
      7441      7443      7444      7446      7441      7449      7452      7453
      7442      7441      7443      7444      7442      7441      7449      7450
      7442      7441      7449      7451      7442      7441      7449      7452
      7443      7441      7449      7450      7443      7441      7449      7451
      7443      7441      7449      7452      7443      7444      7446      7447
      7443      7444      7446      7448      7443      7444      7446      7458
      7444      7443      7441      7449      7444      7446      7458      7459
      7444      7446      7458      7460      7444      7446      7458      7461
      7445      7444      7446      7447      7445      7444      7446      7448
      7445      7444      7446      7458      7446      7458      7461      7462
      7446      7458      7461      7463      7446      7458      7461      7464
      7447      7446      7458      7459      7447      7446      7458      7460
      7447      7446      7458      7461      7448      7446      7458      7459
      7448      7446      7458      7460      7448      7446      7458      7461
      7449      7452      7453      7454      7449      7452      7453      7455
      7450      7449      7452      7453      7451      7449      7452      7453
      7452      7453      7455      7456      7452      7453      7455      7457
      7452      7453      7455      7505      7453      7455      7505      7506
      7453      7455      7505      7507      7453      7455      7505      7508
      7454      7453      7455      7456      7454      7453      7455      7457
      7454      7453      7455      7505      7455      7505      7508      7509
      7455      7505      7508      7510      7455      7505      7508      7511
      7456      7455      7505      7506      7456      7455      7505      7507
      7456      7455      7505      7508      7457      7455      7505      7506
      7457      7455      7505      7507      7457      7455      7505      7508
      7458      7461      7464      7465      7458      7461      7464      7466
      7458      7461      7464      7467      7459      7458      7461      7462
      7459      7458      7461      7463      7459      7458      7461      7464
      7460      7458      7461      7462      7460      7458      7461      7463
      7460      7458      7461      7464      7461      7464      7467      7468
      7461      7464      7467      7469      7461      7464      7467      7470
      7462      7461      7464      7465      7462      7461      7464      7466
      7462      7461      7464      7467      7463      7461      7464      7465
      7463      7461      7464      7466      7463      7461      7464      7467
      7464      7467      7470      7471      7464      7467      7470      7472
      7464      7467      7470      7473      7465      7464      7467      7468
      7465      7464      7467      7469      7465      7464      7467      7470
      7466      7464      7467      7468      7466      7464      7467      7469
      7466      7464      7467      7470      7467      7470      7473      7474
      7467      7470      7473      7475      7467      7470      7473      7476
      7468      7467      7470      7471      7468      7467      7470      7472
      7468      7467      7470      7473      7469      7467      7470      7471
      7469      7467      7470      7472      7469      7467      7470      7473
      7470      7473      7476      7477      7470      7473      7476      7478
      7471      7470      7473      7474      7471      7470      7473      7475
      7471      7470      7473      7476      7472      7470      7473      7474
      7472      7470      7473      7475      7472      7470      7473      7476
      7473      7476      7478      7479      7473      7476      7478      7480
      7474      7473      7476      7477      7474      7473      7476      7478
      7475      7473      7476      7477      7475      7473      7476      7478
      7476      7478      7480      7481      7476      7478      7480      7482
      7476      7478      7480      7483      7477      7476      7478      7479
      7477      7476      7478      7480      7478      7480      7483      7484
      7478      7480      7483      7485      7478      7480      7483      7486
      7479      7478      7480      7481      7479      7478      7480      7482
      7479      7478      7480      7483      7480      7483      7486      7487
      7480      7483      7486      7488      7480      7483      7486      7489
      7481      7480      7483      7484      7481      7480      7483      7485
      7481      7480      7483      7486      7482      7480      7483      7484
      7482      7480      7483      7485      7482      7480      7483      7486
      7483      7486      7489      7490      7483      7486      7489      7491
      7483      7486      7489      7492      7484      7483      7486      7487
      7484      7483      7486      7488      7484      7483      7486      7489
      7485      7483      7486      7487      7485      7483      7486      7488
      7485      7483      7486      7489      7486      7489      7492      7493
      7486      7489      7492      7494      7486      7489      7492      7495
      7487      7486      7489      7490      7487      7486      7489      7491
      7487      7486      7489      7492      7488      7486      7489      7490
      7488      7486      7489      7491      7488      7486      7489      7492
      7489      7492      7495      7496      7489      7492      7495      7497
      7489      7492      7495      7498      7490      7489      7492      7493
      7490      7489      7492      7494      7490      7489      7492      7495
      7491      7489      7492      7493      7491      7489      7492      7494
      7491      7489      7492      7495      7492      7495      7498      7499
      7492      7495      7498      7500      7492      7495      7498      7501
      7493      7492      7495      7496      7493      7492      7495      7497
      7493      7492      7495      7498      7494      7492      7495      7496
      7494      7492      7495      7497      7494      7492      7495      7498
      7495      7498      7501      7502      7495      7498      7501      7503
      7495      7498      7501      7504      7496      7495      7498      7499
      7496      7495      7498      7500      7496      7495      7498      7501
      7497      7495      7498      7499      7497      7495      7498      7500
      7497      7495      7498      7501      7499      7498      7501      7502
      7499      7498      7501      7503      7499      7498      7501      7504
      7500      7498      7501      7502      7500      7498      7501      7503
      7500      7498      7501      7504      7505      7508      7511      7512
      7505      7508      7511      7513      7505      7508      7511      7514
      7506      7505      7508      7509      7506      7505      7508      7510
      7506      7505      7508      7511      7507      7505      7508      7509
      7507      7505      7508      7510      7507      7505      7508      7511
      7508      7511      7514      7515      7508      7511      7514      7516
      7508      7511      7514      7517      7509      7508      7511      7512
      7509      7508      7511      7513      7509      7508      7511      7514
      7510      7508      7511      7512      7510      7508      7511      7513
      7510      7508      7511      7514      7511      7514      7517      7518
      7511      7514      7517      7519      7511      7514      7517      7520
      7512      7511      7514      7515      7512      7511      7514      7516
      7512      7511      7514      7517      7513      7511      7514      7515
      7513      7511      7514      7516      7513      7511      7514      7517
      7514      7517      7520      7521      7514      7517      7520      7522
      7514      7517      7520      7523      7515      7514      7517      7518
      7515      7514      7517      7519      7515      7514      7517      7520
      7516      7514      7517      7518      7516      7514      7517      7519
      7516      7514      7517      7520      7517      7520      7523      7524
      7517      7520      7523      7525      7517      7520      7523      7526
      7518      7517      7520      7521      7518      7517      7520      7522
      7518      7517      7520      7523      7519      7517      7520      7521
      7519      7517      7520      7522      7519      7517      7520      7523
      7520      7523      7526      7527      7520      7523      7526      7528
      7520      7523      7526      7529      7521      7520      7523      7524
      7521      7520      7523      7525      7521      7520      7523      7526
      7522      7520      7523      7524      7522      7520      7523      7525
      7522      7520      7523      7526      7523      7526      7529      7530
      7523      7526      7529      7531      7523      7526      7529      7532
      7524      7523      7526      7527      7524      7523      7526      7528
      7524      7523      7526      7529      7525      7523      7526      7527
      7525      7523      7526      7528      7525      7523      7526      7529
      7526      7529      7532      7533      7526      7529      7532      7534
      7526      7529      7532      7535      7527      7526      7529      7530
      7527      7526      7529      7531      7527      7526      7529      7532
      7528      7526      7529      7530      7528      7526      7529      7531
      7528      7526      7529      7532      7529      7532      7535      7536
      7529      7532      7535      7537      7529      7532      7535      7538
      7530      7529      7532      7533      7530      7529      7532      7534
      7530      7529      7532      7535      7531      7529      7532      7533
      7531      7529      7532      7534      7531      7529      7532      7535
      7532      7535      7538      7539      7532      7535      7538      7540
      7532      7535      7538      7541      7533      7532      7535      7536
      7533      7532      7535      7537      7533      7532      7535      7538
      7534      7532      7535      7536      7534      7532      7535      7537
      7534      7532      7535      7538      7535      7538      7541      7542
      7535      7538      7541      7543      7535      7538      7541      7544
      7536      7535      7538      7539      7536      7535      7538      7540
      7536      7535      7538      7541      7537      7535      7538      7539
      7537      7535      7538      7540      7537      7535      7538      7541
      7538      7541      7544      7545      7538      7541      7544      7546
      7538      7541      7544      7547      7539      7538      7541      7542
      7539      7538      7541      7543      7539      7538      7541      7544
      7540      7538      7541      7542      7540      7538      7541      7543
      7540      7538      7541      7544      7542      7541      7544      7545
      7542      7541      7544      7546      7542      7541      7544      7547
      7543      7541      7544      7545      7543      7541      7544      7546
      7543      7541      7544      7547      7548      7549      7564      7565
      7548      7549      7564      7566      7548      7549      7564      7570
      7549      7548      7552      7553      7549      7548      7552      7554
      7549      7548      7552      7555      7549      7548      7556      7557
      7549      7548      7556      7558      7549      7548      7556      7559
      7549      7548      7560      7561      7549      7548      7560      7562
      7549      7548      7560      7563      7549      7564      7570      7567
      7550      7549      7548      7552      7550      7549      7548      7556
      7550      7549      7548      7560      7550      7549      7564      7565
      7550      7549      7564      7566      7550      7549      7564      7570
      7551      7549      7548      7552      7551      7549      7548      7556
      7551      7549      7548      7560      7551      7549      7564      7565
      7551      7549      7564      7566      7551      7549      7564      7570
      7552      7548      7549      7564      7552      7548      7556      7557
      7552      7548      7556      7558      7552      7548      7556      7559
      7552      7548      7560      7561      7552      7548      7560      7562
      7552      7548      7560      7563      7553      7552      7548      7556
      7553      7552      7548      7560      7554      7552      7548      7556
      7554      7552      7548      7560      7555      7552      7548      7556
      7555      7552      7548      7560      7556      7548      7549      7564
      7556      7548      7560      7561      7556      7548      7560      7562
      7556      7548      7560      7563      7557      7556      7548      7560
      7558      7556      7548      7560      7559      7556      7548      7560
      7560      7548      7549      7564      7564      7570      7567      7568
      7564      7570      7567      7569      7564      7570      7567      7571
      7565      7564      7570      7567      7566      7564      7570      7567
      7567      7571      7572      7573      7567      7571      7572      7574
      7567      7571      7572      7575      7568      7567      7571      7572
      7569      7567      7571      7572      7570      7567      7571      7572
      7571      7572      7575      7576      7571      7572      7575      7577
      7571      7572      7575      7583      7572      7575      7577      7578
      7572      7575      7583      7584      7572      7575      7583      7585
      7572      7575      7583      7586      7573      7572      7575      7576
      7573      7572      7575      7577      7573      7572      7575      7583
      7574      7572      7575      7576      7574      7572      7575      7577
      7574      7572      7575      7583      7575      7577      7578      7579
      7575      7577      7578      7580      7575      7583      7586      7587
      7576      7575      7577      7578      7576      7575      7583      7584
      7576      7575      7583      7585      7576      7575      7583      7586
      7577      7575      7583      7584      7577      7575      7583      7585
      7577      7575      7583      7586      7577      7578      7580      7581
      7577      7578      7580      7582      7577      7578      7580      7592
      7578      7577      7575      7583      7578      7580      7592      7593
      7578      7580      7592      7594      7578      7580      7592      7595
      7579      7578      7580      7581      7579      7578      7580      7582
      7579      7578      7580      7592      7580      7592      7595      7596
      7580      7592      7595      7597      7580      7592      7595      7598
      7581      7580      7592      7593      7581      7580      7592      7594
      7581      7580      7592      7595      7582      7580      7592      7593
      7582      7580      7592      7594      7582      7580      7592      7595
      7583      7586      7587      7588      7583      7586      7587      7589
      7584      7583      7586      7587      7585      7583      7586      7587
      7586      7587      7589      7590      7586      7587      7589      7591
      7586      7587      7589      7639      7587      7589      7639      7640
      7587      7589      7639      7641      7587      7589      7639      7642
      7588      7587      7589      7590      7588      7587      7589      7591
      7588      7587      7589      7639      7589      7639      7642      7643
      7589      7639      7642      7644      7589      7639      7642      7645
      7590      7589      7639      7640      7590      7589      7639      7641
      7590      7589      7639      7642      7591      7589      7639      7640
      7591      7589      7639      7641      7591      7589      7639      7642
      7592      7595      7598      7599      7592      7595      7598      7600
      7592      7595      7598      7601      7593      7592      7595      7596
      7593      7592      7595      7597      7593      7592      7595      7598
      7594      7592      7595      7596      7594      7592      7595      7597
      7594      7592      7595      7598      7595      7598      7601      7602
      7595      7598      7601      7603      7595      7598      7601      7604
      7596      7595      7598      7599      7596      7595      7598      7600
      7596      7595      7598      7601      7597      7595      7598      7599
      7597      7595      7598      7600      7597      7595      7598      7601
      7598      7601      7604      7605      7598      7601      7604      7606
      7598      7601      7604      7607      7599      7598      7601      7602
      7599      7598      7601      7603      7599      7598      7601      7604
      7600      7598      7601      7602      7600      7598      7601      7603
      7600      7598      7601      7604      7601      7604      7607      7608
      7601      7604      7607      7609      7601      7604      7607      7610
      7602      7601      7604      7605      7602      7601      7604      7606
      7602      7601      7604      7607      7603      7601      7604      7605
      7603      7601      7604      7606      7603      7601      7604      7607
      7604      7607      7610      7611      7604      7607      7610      7612
      7605      7604      7607      7608      7605      7604      7607      7609
      7605      7604      7607      7610      7606      7604      7607      7608
      7606      7604      7607      7609      7606      7604      7607      7610
      7607      7610      7612      7613      7607      7610      7612      7614
      7608      7607      7610      7611      7608      7607      7610      7612
      7609      7607      7610      7611      7609      7607      7610      7612
      7610      7612      7614      7615      7610      7612      7614      7616
      7610      7612      7614      7617      7611      7610      7612      7613
      7611      7610      7612      7614      7612      7614      7617      7618
      7612      7614      7617      7619      7612      7614      7617      7620
      7613      7612      7614      7615      7613      7612      7614      7616
      7613      7612      7614      7617      7614      7617      7620      7621
      7614      7617      7620      7622      7614      7617      7620      7623
      7615      7614      7617      7618      7615      7614      7617      7619
      7615      7614      7617      7620      7616      7614      7617      7618
      7616      7614      7617      7619      7616      7614      7617      7620
      7617      7620      7623      7624      7617      7620      7623      7625
      7617      7620      7623      7626      7618      7617      7620      7621
      7618      7617      7620      7622      7618      7617      7620      7623
      7619      7617      7620      7621      7619      7617      7620      7622
      7619      7617      7620      7623      7620      7623      7626      7627
      7620      7623      7626      7628      7620      7623      7626      7629
      7621      7620      7623      7624      7621      7620      7623      7625
      7621      7620      7623      7626      7622      7620      7623      7624
      7622      7620      7623      7625      7622      7620      7623      7626
      7623      7626      7629      7630      7623      7626      7629      7631
      7623      7626      7629      7632      7624      7623      7626      7627
      7624      7623      7626      7628      7624      7623      7626      7629
      7625      7623      7626      7627      7625      7623      7626      7628
      7625      7623      7626      7629      7626      7629      7632      7633
      7626      7629      7632      7634      7626      7629      7632      7635
      7627      7626      7629      7630      7627      7626      7629      7631
      7627      7626      7629      7632      7628      7626      7629      7630
      7628      7626      7629      7631      7628      7626      7629      7632
      7629      7632      7635      7636      7629      7632      7635      7637
      7629      7632      7635      7638      7630      7629      7632      7633
      7630      7629      7632      7634      7630      7629      7632      7635
      7631      7629      7632      7633      7631      7629      7632      7634
      7631      7629      7632      7635      7633      7632      7635      7636
      7633      7632      7635      7637      7633      7632      7635      7638
      7634      7632      7635      7636      7634      7632      7635      7637
      7634      7632      7635      7638      7639      7642      7645      7646
      7639      7642      7645      7647      7639      7642      7645      7648
      7640      7639      7642      7643      7640      7639      7642      7644
      7640      7639      7642      7645      7641      7639      7642      7643
      7641      7639      7642      7644      7641      7639      7642      7645
      7642      7645      7648      7649      7642      7645      7648      7650
      7642      7645      7648      7651      7643      7642      7645      7646
      7643      7642      7645      7647      7643      7642      7645      7648
      7644      7642      7645      7646      7644      7642      7645      7647
      7644      7642      7645      7648      7645      7648      7651      7652
      7645      7648      7651      7653      7645      7648      7651      7654
      7646      7645      7648      7649      7646      7645      7648      7650
      7646      7645      7648      7651      7647      7645      7648      7649
      7647      7645      7648      7650      7647      7645      7648      7651
      7648      7651      7654      7655      7648      7651      7654      7656
      7648      7651      7654      7657      7649      7648      7651      7652
      7649      7648      7651      7653      7649      7648      7651      7654
      7650      7648      7651      7652      7650      7648      7651      7653
      7650      7648      7651      7654      7651      7654      7657      7658
      7651      7654      7657      7659      7651      7654      7657      7660
      7652      7651      7654      7655      7652      7651      7654      7656
      7652      7651      7654      7657      7653      7651      7654      7655
      7653      7651      7654      7656      7653      7651      7654      7657
      7654      7657      7660      7661      7654      7657      7660      7662
      7654      7657      7660      7663      7655      7654      7657      7658
      7655      7654      7657      7659      7655      7654      7657      7660
      7656      7654      7657      7658      7656      7654      7657      7659
      7656      7654      7657      7660      7657      7660      7663      7664
      7657      7660      7663      7665      7657      7660      7663      7666
      7658      7657      7660      7661      7658      7657      7660      7662
      7658      7657      7660      7663      7659      7657      7660      7661
      7659      7657      7660      7662      7659      7657      7660      7663
      7660      7663      7666      7667      7660      7663      7666      7668
      7660      7663      7666      7669      7661      7660      7663      7664
      7661      7660      7663      7665      7661      7660      7663      7666
      7662      7660      7663      7664      7662      7660      7663      7665
      7662      7660      7663      7666      7663      7666      7669      7670
      7663      7666      7669      7671      7663      7666      7669      7672
      7664      7663      7666      7667      7664      7663      7666      7668
      7664      7663      7666      7669      7665      7663      7666      7667
      7665      7663      7666      7668      7665      7663      7666      7669
      7666      7669      7672      7673      7666      7669      7672      7674
      7666      7669      7672      7675      7667      7666      7669      7670
      7667      7666      7669      7671      7667      7666      7669      7672
      7668      7666      7669      7670      7668      7666      7669      7671
      7668      7666      7669      7672      7669      7672      7675      7676
      7669      7672      7675      7677      7669      7672      7675      7678
      7670      7669      7672      7673      7670      7669      7672      7674
      7670      7669      7672      7675      7671      7669      7672      7673
      7671      7669      7672      7674      7671      7669      7672      7675
      7672      7675      7678      7679      7672      7675      7678      7680
      7672      7675      7678      7681      7673      7672      7675      7676
      7673      7672      7675      7677      7673      7672      7675      7678
      7674      7672      7675      7676      7674      7672      7675      7677
      7674      7672      7675      7678      7676      7675      7678      7679
      7676      7675      7678      7680      7676      7675      7678      7681
      7677      7675      7678      7679      7677      7675      7678      7680
      7677      7675      7678      7681      7682      7683      7698      7699
      7682      7683      7698      7700      7682      7683      7698      7704
      7683      7682      7686      7687      7683      7682      7686      7688
      7683      7682      7686      7689      7683      7682      7690      7691
      7683      7682      7690      7692      7683      7682      7690      7693
      7683      7682      7694      7695      7683      7682      7694      7696
      7683      7682      7694      7697      7683      7698      7704      7701
      7684      7683      7682      7686      7684      7683      7682      7690
      7684      7683      7682      7694      7684      7683      7698      7699
      7684      7683      7698      7700      7684      7683      7698      7704
      7685      7683      7682      7686      7685      7683      7682      7690
      7685      7683      7682      7694      7685      7683      7698      7699
      7685      7683      7698      7700      7685      7683      7698      7704
      7686      7682      7683      7698      7686      7682      7690      7691
      7686      7682      7690      7692      7686      7682      7690      7693
      7686      7682      7694      7695      7686      7682      7694      7696
      7686      7682      7694      7697      7687      7686      7682      7690
      7687      7686      7682      7694      7688      7686      7682      7690
      7688      7686      7682      7694      7689      7686      7682      7690
      7689      7686      7682      7694      7690      7682      7683      7698
      7690      7682      7694      7695      7690      7682      7694      7696
      7690      7682      7694      7697      7691      7690      7682      7694
      7692      7690      7682      7694      7693      7690      7682      7694
      7694      7682      7683      7698      7698      7704      7701      7702
      7698      7704      7701      7703      7698      7704      7701      7705
      7699      7698      7704      7701      7700      7698      7704      7701
      7701      7705      7706      7707      7701      7705      7706      7708
      7701      7705      7706      7709      7702      7701      7705      7706
      7703      7701      7705      7706      7704      7701      7705      7706
      7705      7706      7709      7710      7705      7706      7709      7711
      7705      7706      7709      7717      7706      7709      7711      7712
      7706      7709      7717      7718      7706      7709      7717      7719
      7706      7709      7717      7720      7707      7706      7709      7710
      7707      7706      7709      7711      7707      7706      7709      7717
      7708      7706      7709      7710      7708      7706      7709      7711
      7708      7706      7709      7717      7709      7711      7712      7713
      7709      7711      7712      7714      7709      7717      7720      7721
      7710      7709      7711      7712      7710      7709      7717      7718
      7710      7709      7717      7719      7710      7709      7717      7720
      7711      7709      7717      7718      7711      7709      7717      7719
      7711      7709      7717      7720      7711      7712      7714      7715
      7711      7712      7714      7716      7711      7712      7714      7726
      7712      7711      7709      7717      7712      7714      7726      7727
      7712      7714      7726      7728      7712      7714      7726      7729
      7713      7712      7714      7715      7713      7712      7714      7716
      7713      7712      7714      7726      7714      7726      7729      7730
      7714      7726      7729      7731      7714      7726      7729      7732
      7715      7714      7726      7727      7715      7714      7726      7728
      7715      7714      7726      7729      7716      7714      7726      7727
      7716      7714      7726      7728      7716      7714      7726      7729
      7717      7720      7721      7722      7717      7720      7721      7723
      7718      7717      7720      7721      7719      7717      7720      7721
      7720      7721      7723      7724      7720      7721      7723      7725
      7720      7721      7723      7773      7721      7723      7773      7774
      7721      7723      7773      7775      7721      7723      7773      7776
      7722      7721      7723      7724      7722      7721      7723      7725
      7722      7721      7723      7773      7723      7773      7776      7777
      7723      7773      7776      7778      7723      7773      7776      7779
      7724      7723      7773      7774      7724      7723      7773      7775
      7724      7723      7773      7776      7725      7723      7773      7774
      7725      7723      7773      7775      7725      7723      7773      7776
      7726      7729      7732      7733      7726      7729      7732      7734
      7726      7729      7732      7735      7727      7726      7729      7730
      7727      7726      7729      7731      7727      7726      7729      7732
      7728      7726      7729      7730      7728      7726      7729      7731
      7728      7726      7729      7732      7729      7732      7735      7736
      7729      7732      7735      7737      7729      7732      7735      7738
      7730      7729      7732      7733      7730      7729      7732      7734
      7730      7729      7732      7735      7731      7729      7732      7733
      7731      7729      7732      7734      7731      7729      7732      7735
      7732      7735      7738      7739      7732      7735      7738      7740
      7732      7735      7738      7741      7733      7732      7735      7736
      7733      7732      7735      7737      7733      7732      7735      7738
      7734      7732      7735      7736      7734      7732      7735      7737
      7734      7732      7735      7738      7735      7738      7741      7742
      7735      7738      7741      7743      7735      7738      7741      7744
      7736      7735      7738      7739      7736      7735      7738      7740
      7736      7735      7738      7741      7737      7735      7738      7739
      7737      7735      7738      7740      7737      7735      7738      7741
      7738      7741      7744      7745      7738      7741      7744      7746
      7739      7738      7741      7742      7739      7738      7741      7743
      7739      7738      7741      7744      7740      7738      7741      7742
      7740      7738      7741      7743      7740      7738      7741      7744
      7741      7744      7746      7747      7741      7744      7746      7748
      7742      7741      7744      7745      7742      7741      7744      7746
      7743      7741      7744      7745      7743      7741      7744      7746
      7744      7746      7748      7749      7744      7746      7748      7750
      7744      7746      7748      7751      7745      7744      7746      7747
      7745      7744      7746      7748      7746      7748      7751      7752
      7746      7748      7751      7753      7746      7748      7751      7754
      7747      7746      7748      7749      7747      7746      7748      7750
      7747      7746      7748      7751      7748      7751      7754      7755
      7748      7751      7754      7756      7748      7751      7754      7757
      7749      7748      7751      7752      7749      7748      7751      7753
      7749      7748      7751      7754      7750      7748      7751      7752
      7750      7748      7751      7753      7750      7748      7751      7754
      7751      7754      7757      7758      7751      7754      7757      7759
      7751      7754      7757      7760      7752      7751      7754      7755
      7752      7751      7754      7756      7752      7751      7754      7757
      7753      7751      7754      7755      7753      7751      7754      7756
      7753      7751      7754      7757      7754      7757      7760      7761
      7754      7757      7760      7762      7754      7757      7760      7763
      7755      7754      7757      7758      7755      7754      7757      7759
      7755      7754      7757      7760      7756      7754      7757      7758
      7756      7754      7757      7759      7756      7754      7757      7760
      7757      7760      7763      7764      7757      7760      7763      7765
      7757      7760      7763      7766      7758      7757      7760      7761
      7758      7757      7760      7762      7758      7757      7760      7763
      7759      7757      7760      7761      7759      7757      7760      7762
      7759      7757      7760      7763      7760      7763      7766      7767
      7760      7763      7766      7768      7760      7763      7766      7769
      7761      7760      7763      7764      7761      7760      7763      7765
      7761      7760      7763      7766      7762      7760      7763      7764
      7762      7760      7763      7765      7762      7760      7763      7766
      7763      7766      7769      7770      7763      7766      7769      7771
      7763      7766      7769      7772      7764      7763      7766      7767
      7764      7763      7766      7768      7764      7763      7766      7769
      7765      7763      7766      7767      7765      7763      7766      7768
      7765      7763      7766      7769      7767      7766      7769      7770
      7767      7766      7769      7771      7767      7766      7769      7772
      7768      7766      7769      7770      7768      7766      7769      7771
      7768      7766      7769      7772      7773      7776      7779      7780
      7773      7776      7779      7781      7773      7776      7779      7782
      7774      7773      7776      7777      7774      7773      7776      7778
      7774      7773      7776      7779      7775      7773      7776      7777
      7775      7773      7776      7778      7775      7773      7776      7779
      7776      7779      7782      7783      7776      7779      7782      7784
      7776      7779      7782      7785      7777      7776      7779      7780
      7777      7776      7779      7781      7777      7776      7779      7782
      7778      7776      7779      7780      7778      7776      7779      7781
      7778      7776      7779      7782      7779      7782      7785      7786
      7779      7782      7785      7787      7779      7782      7785      7788
      7780      7779      7782      7783      7780      7779      7782      7784
      7780      7779      7782      7785      7781      7779      7782      7783
      7781      7779      7782      7784      7781      7779      7782      7785
      7782      7785      7788      7789      7782      7785      7788      7790
      7782      7785      7788      7791      7783      7782      7785      7786
      7783      7782      7785      7787      7783      7782      7785      7788
      7784      7782      7785      7786      7784      7782      7785      7787
      7784      7782      7785      7788      7785      7788      7791      7792
      7785      7788      7791      7793      7785      7788      7791      7794
      7786      7785      7788      7789      7786      7785      7788      7790
      7786      7785      7788      7791      7787      7785      7788      7789
      7787      7785      7788      7790      7787      7785      7788      7791
      7788      7791      7794      7795      7788      7791      7794      7796
      7788      7791      7794      7797      7789      7788      7791      7792
      7789      7788      7791      7793      7789      7788      7791      7794
      7790      7788      7791      7792      7790      7788      7791      7793
      7790      7788      7791      7794      7791      7794      7797      7798
      7791      7794      7797      7799      7791      7794      7797      7800
      7792      7791      7794      7795      7792      7791      7794      7796
      7792      7791      7794      7797      7793      7791      7794      7795
      7793      7791      7794      7796      7793      7791      7794      7797
      7794      7797      7800      7801      7794      7797      7800      7802
      7794      7797      7800      7803      7795      7794      7797      7798
      7795      7794      7797      7799      7795      7794      7797      7800
      7796      7794      7797      7798      7796      7794      7797      7799
      7796      7794      7797      7800      7797      7800      7803      7804
      7797      7800      7803      7805      7797      7800      7803      7806
      7798      7797      7800      7801      7798      7797      7800      7802
      7798      7797      7800      7803      7799      7797      7800      7801
      7799      7797      7800      7802      7799      7797      7800      7803
      7800      7803      7806      7807      7800      7803      7806      7808
      7800      7803      7806      7809      7801      7800      7803      7804
      7801      7800      7803      7805      7801      7800      7803      7806
      7802      7800      7803      7804      7802      7800      7803      7805
      7802      7800      7803      7806      7803      7806      7809      7810
      7803      7806      7809      7811      7803      7806      7809      7812
      7804      7803      7806      7807      7804      7803      7806      7808
      7804      7803      7806      7809      7805      7803      7806      7807
      7805      7803      7806      7808      7805      7803      7806      7809
      7806      7809      7812      7813      7806      7809      7812      7814
      7806      7809      7812      7815      7807      7806      7809      7810
      7807      7806      7809      7811      7807      7806      7809      7812
      7808      7806      7809      7810      7808      7806      7809      7811
      7808      7806      7809      7812      7810      7809      7812      7813
      7810      7809      7812      7814      7810      7809      7812      7815
      7811      7809      7812      7813      7811      7809      7812      7814
      7811      7809      7812      7815      7816      7817      7832      7833
      7816      7817      7832      7834      7816      7817      7832      7838
      7817      7816      7820      7821      7817      7816      7820      7822
      7817      7816      7820      7823      7817      7816      7824      7825
      7817      7816      7824      7826      7817      7816      7824      7827
      7817      7816      7828      7829      7817      7816      7828      7830
      7817      7816      7828      7831      7817      7832      7838      7835
      7818      7817      7816      7820      7818      7817      7816      7824
      7818      7817      7816      7828      7818      7817      7832      7833
      7818      7817      7832      7834      7818      7817      7832      7838
      7819      7817      7816      7820      7819      7817      7816      7824
      7819      7817      7816      7828      7819      7817      7832      7833
      7819      7817      7832      7834      7819      7817      7832      7838
      7820      7816      7817      7832      7820      7816      7824      7825
      7820      7816      7824      7826      7820      7816      7824      7827
      7820      7816      7828      7829      7820      7816      7828      7830
      7820      7816      7828      7831      7821      7820      7816      7824
      7821      7820      7816      7828      7822      7820      7816      7824
      7822      7820      7816      7828      7823      7820      7816      7824
      7823      7820      7816      7828      7824      7816      7817      7832
      7824      7816      7828      7829      7824      7816      7828      7830
      7824      7816      7828      7831      7825      7824      7816      7828
      7826      7824      7816      7828      7827      7824      7816      7828
      7828      7816      7817      7832      7832      7838      7835      7836
      7832      7838      7835      7837      7832      7838      7835      7839
      7833      7832      7838      7835      7834      7832      7838      7835
      7835      7839      7840      7841      7835      7839      7840      7842
      7835      7839      7840      7843      7836      7835      7839      7840
      7837      7835      7839      7840      7838      7835      7839      7840
      7839      7840      7843      7844      7839      7840      7843      7845
      7839      7840      7843      7851      7840      7843      7845      7846
      7840      7843      7851      7852      7840      7843      7851      7853
      7840      7843      7851      7854      7841      7840      7843      7844
      7841      7840      7843      7845      7841      7840      7843      7851
      7842      7840      7843      7844      7842      7840      7843      7845
      7842      7840      7843      7851      7843      7845      7846      7847
      7843      7845      7846      7848      7843      7851      7854      7855
      7844      7843      7845      7846      7844      7843      7851      7852
      7844      7843      7851      7853      7844      7843      7851      7854
      7845      7843      7851      7852      7845      7843      7851      7853
      7845      7843      7851      7854      7845      7846      7848      7849
      7845      7846      7848      7850      7845      7846      7848      7860
      7846      7845      7843      7851      7846      7848      7860      7861
      7846      7848      7860      7862      7846      7848      7860      7863
      7847      7846      7848      7849      7847      7846      7848      7850
      7847      7846      7848      7860      7848      7860      7863      7864
      7848      7860      7863      7865      7848      7860      7863      7866
      7849      7848      7860      7861      7849      7848      7860      7862
      7849      7848      7860      7863      7850      7848      7860      7861
      7850      7848      7860      7862      7850      7848      7860      7863
      7851      7854      7855      7856      7851      7854      7855      7857
      7852      7851      7854      7855      7853      7851      7854      7855
      7854      7855      7857      7858      7854      7855      7857      7859
      7854      7855      7857      7907      7855      7857      7907      7908
      7855      7857      7907      7909      7855      7857      7907      7910
      7856      7855      7857      7858      7856      7855      7857      7859
      7856      7855      7857      7907      7857      7907      7910      7911
      7857      7907      7910      7912      7857      7907      7910      7913
      7858      7857      7907      7908      7858      7857      7907      7909
      7858      7857      7907      7910      7859      7857      7907      7908
      7859      7857      7907      7909      7859      7857      7907      7910
      7860      7863      7866      7867      7860      7863      7866      7868
      7860      7863      7866      7869      7861      7860      7863      7864
      7861      7860      7863      7865      7861      7860      7863      7866
      7862      7860      7863      7864      7862      7860      7863      7865
      7862      7860      7863      7866      7863      7866      7869      7870
      7863      7866      7869      7871      7863      7866      7869      7872
      7864      7863      7866      7867      7864      7863      7866      7868
      7864      7863      7866      7869      7865      7863      7866      7867
      7865      7863      7866      7868      7865      7863      7866      7869
      7866      7869      7872      7873      7866      7869      7872      7874
      7866      7869      7872      7875      7867      7866      7869      7870
      7867      7866      7869      7871      7867      7866      7869      7872
      7868      7866      7869      7870      7868      7866      7869      7871
      7868      7866      7869      7872      7869      7872      7875      7876
      7869      7872      7875      7877      7869      7872      7875      7878
      7870      7869      7872      7873      7870      7869      7872      7874
      7870      7869      7872      7875      7871      7869      7872      7873
      7871      7869      7872      7874      7871      7869      7872      7875
      7872      7875      7878      7879      7872      7875      7878      7880
      7873      7872      7875      7876      7873      7872      7875      7877
      7873      7872      7875      7878      7874      7872      7875      7876
      7874      7872      7875      7877      7874      7872      7875      7878
      7875      7878      7880      7881      7875      7878      7880      7882
      7876      7875      7878      7879      7876      7875      7878      7880
      7877      7875      7878      7879      7877      7875      7878      7880
      7878      7880      7882      7883      7878      7880      7882      7884
      7878      7880      7882      7885      7879      7878      7880      7881
      7879      7878      7880      7882      7880      7882      7885      7886
      7880      7882      7885      7887      7880      7882      7885      7888
      7881      7880      7882      7883      7881      7880      7882      7884
      7881      7880      7882      7885      7882      7885      7888      7889
      7882      7885      7888      7890      7882      7885      7888      7891
      7883      7882      7885      7886      7883      7882      7885      7887
      7883      7882      7885      7888      7884      7882      7885      7886
      7884      7882      7885      7887      7884      7882      7885      7888
      7885      7888      7891      7892      7885      7888      7891      7893
      7885      7888      7891      7894      7886      7885      7888      7889
      7886      7885      7888      7890      7886      7885      7888      7891
      7887      7885      7888      7889      7887      7885      7888      7890
      7887      7885      7888      7891      7888      7891      7894      7895
      7888      7891      7894      7896      7888      7891      7894      7897
      7889      7888      7891      7892      7889      7888      7891      7893
      7889      7888      7891      7894      7890      7888      7891      7892
      7890      7888      7891      7893      7890      7888      7891      7894
      7891      7894      7897      7898      7891      7894      7897      7899
      7891      7894      7897      7900      7892      7891      7894      7895
      7892      7891      7894      7896      7892      7891      7894      7897
      7893      7891      7894      7895      7893      7891      7894      7896
      7893      7891      7894      7897      7894      7897      7900      7901
      7894      7897      7900      7902      7894      7897      7900      7903
      7895      7894      7897      7898      7895      7894      7897      7899
      7895      7894      7897      7900      7896      7894      7897      7898
      7896      7894      7897      7899      7896      7894      7897      7900
      7897      7900      7903      7904      7897      7900      7903      7905
      7897      7900      7903      7906      7898      7897      7900      7901
      7898      7897      7900      7902      7898      7897      7900      7903
      7899      7897      7900      7901      7899      7897      7900      7902
      7899      7897      7900      7903      7901      7900      7903      7904
      7901      7900      7903      7905      7901      7900      7903      7906
      7902      7900      7903      7904      7902      7900      7903      7905
      7902      7900      7903      7906      7907      7910      7913      7914
      7907      7910      7913      7915      7907      7910      7913      7916
      7908      7907      7910      7911      7908      7907      7910      7912
      7908      7907      7910      7913      7909      7907      7910      7911
      7909      7907      7910      7912      7909      7907      7910      7913
      7910      7913      7916      7917      7910      7913      7916      7918
      7910      7913      7916      7919      7911      7910      7913      7914
      7911      7910      7913      7915      7911      7910      7913      7916
      7912      7910      7913      7914      7912      7910      7913      7915
      7912      7910      7913      7916      7913      7916      7919      7920
      7913      7916      7919      7921      7913      7916      7919      7922
      7914      7913      7916      7917      7914      7913      7916      7918
      7914      7913      7916      7919      7915      7913      7916      7917
      7915      7913      7916      7918      7915      7913      7916      7919
      7916      7919      7922      7923      7916      7919      7922      7924
      7916      7919      7922      7925      7917      7916      7919      7920
      7917      7916      7919      7921      7917      7916      7919      7922
      7918      7916      7919      7920      7918      7916      7919      7921
      7918      7916      7919      7922      7919      7922      7925      7926
      7919      7922      7925      7927      7919      7922      7925      7928
      7920      7919      7922      7923      7920      7919      7922      7924
      7920      7919      7922      7925      7921      7919      7922      7923
      7921      7919      7922      7924      7921      7919      7922      7925
      7922      7925      7928      7929      7922      7925      7928      7930
      7922      7925      7928      7931      7923      7922      7925      7926
      7923      7922      7925      7927      7923      7922      7925      7928
      7924      7922      7925      7926      7924      7922      7925      7927
      7924      7922      7925      7928      7925      7928      7931      7932
      7925      7928      7931      7933      7925      7928      7931      7934
      7926      7925      7928      7929      7926      7925      7928      7930
      7926      7925      7928      7931      7927      7925      7928      7929
      7927      7925      7928      7930      7927      7925      7928      7931
      7928      7931      7934      7935      7928      7931      7934      7936
      7928      7931      7934      7937      7929      7928      7931      7932
      7929      7928      7931      7933      7929      7928      7931      7934
      7930      7928      7931      7932      7930      7928      7931      7933
      7930      7928      7931      7934      7931      7934      7937      7938
      7931      7934      7937      7939      7931      7934      7937      7940
      7932      7931      7934      7935      7932      7931      7934      7936
      7932      7931      7934      7937      7933      7931      7934      7935
      7933      7931      7934      7936      7933      7931      7934      7937
      7934      7937      7940      7941      7934      7937      7940      7942
      7934      7937      7940      7943      7935      7934      7937      7938
      7935      7934      7937      7939      7935      7934      7937      7940
      7936      7934      7937      7938      7936      7934      7937      7939
      7936      7934      7937      7940      7937      7940      7943      7944
      7937      7940      7943      7945      7937      7940      7943      7946
      7938      7937      7940      7941      7938      7937      7940      7942
      7938      7937      7940      7943      7939      7937      7940      7941
      7939      7937      7940      7942      7939      7937      7940      7943
      7940      7943      7946      7947      7940      7943      7946      7948
      7940      7943      7946      7949      7941      7940      7943      7944
      7941      7940      7943      7945      7941      7940      7943      7946
      7942      7940      7943      7944      7942      7940      7943      7945
      7942      7940      7943      7946      7944      7943      7946      7947
      7944      7943      7946      7948      7944      7943      7946      7949
      7945      7943      7946      7947      7945      7943      7946      7948
      7945      7943      7946      7949      7950      7951      7966      7967
      7950      7951      7966      7968      7950      7951      7966      7972
      7951      7950      7954      7955      7951      7950      7954      7956
      7951      7950      7954      7957      7951      7950      7958      7959
      7951      7950      7958      7960      7951      7950      7958      7961
      7951      7950      7962      7963      7951      7950      7962      7964
      7951      7950      7962      7965      7951      7966      7972      7969
      7952      7951      7950      7954      7952      7951      7950      7958
      7952      7951      7950      7962      7952      7951      7966      7967
      7952      7951      7966      7968      7952      7951      7966      7972
      7953      7951      7950      7954      7953      7951      7950      7958
      7953      7951      7950      7962      7953      7951      7966      7967
      7953      7951      7966      7968      7953      7951      7966      7972
      7954      7950      7951      7966      7954      7950      7958      7959
      7954      7950      7958      7960      7954      7950      7958      7961
      7954      7950      7962      7963      7954      7950      7962      7964
      7954      7950      7962      7965      7955      7954      7950      7958
      7955      7954      7950      7962      7956      7954      7950      7958
      7956      7954      7950      7962      7957      7954      7950      7958
      7957      7954      7950      7962      7958      7950      7951      7966
      7958      7950      7962      7963      7958      7950      7962      7964
      7958      7950      7962      7965      7959      7958      7950      7962
      7960      7958      7950      7962      7961      7958      7950      7962
      7962      7950      7951      7966      7966      7972      7969      7970
      7966      7972      7969      7971      7966      7972      7969      7973
      7967      7966      7972      7969      7968      7966      7972      7969
      7969      7973      7974      7975      7969      7973      7974      7976
      7969      7973      7974      7977      7970      7969      7973      7974
      7971      7969      7973      7974      7972      7969      7973      7974
      7973      7974      7977      7978      7973      7974      7977      7979
      7973      7974      7977      7985      7974      7977      7979      7980
      7974      7977      7985      7986      7974      7977      7985      7987
      7974      7977      7985      7988      7975      7974      7977      7978
      7975      7974      7977      7979      7975      7974      7977      7985
      7976      7974      7977      7978      7976      7974      7977      7979
      7976      7974      7977      7985      7977      7979      7980      7981
      7977      7979      7980      7982      7977      7985      7988      7989
      7978      7977      7979      7980      7978      7977      7985      7986
      7978      7977      7985      7987      7978      7977      7985      7988
      7979      7977      7985      7986      7979      7977      7985      7987
      7979      7977      7985      7988      7979      7980      7982      7983
      7979      7980      7982      7984      7979      7980      7982      7994
      7980      7979      7977      7985      7980      7982      7994      7995
      7980      7982      7994      7996      7980      7982      7994      7997
      7981      7980      7982      7983      7981      7980      7982      7984
      7981      7980      7982      7994      7982      7994      7997      7998
      7982      7994      7997      7999      7982      7994      7997      8000
      7983      7982      7994      7995      7983      7982      7994      7996
      7983      7982      7994      7997      7984      7982      7994      7995
      7984      7982      7994      7996      7984      7982      7994      7997
      7985      7988      7989      7990      7985      7988      7989      7991
      7986      7985      7988      7989      7987      7985      7988      7989
      7988      7989      7991      7992      7988      7989      7991      7993
      7988      7989      7991      8041      7989      7991      8041      8042
      7989      7991      8041      8043      7989      7991      8041      8044
      7990      7989      7991      7992      7990      7989      7991      7993
      7990      7989      7991      8041      7991      8041      8044      8045
      7991      8041      8044      8046      7991      8041      8044      8047
      7992      7991      8041      8042      7992      7991      8041      8043
      7992      7991      8041      8044      7993      7991      8041      8042
      7993      7991      8041      8043      7993      7991      8041      8044
      7994      7997      8000      8001      7994      7997      8000      8002
      7994      7997      8000      8003      7995      7994      7997      7998
      7995      7994      7997      7999      7995      7994      7997      8000
      7996      7994      7997      7998      7996      7994      7997      7999
      7996      7994      7997      8000      7997      8000      8003      8004
      7997      8000      8003      8005      7997      8000      8003      8006
      7998      7997      8000      8001      7998      7997      8000      8002
      7998      7997      8000      8003      7999      7997      8000      8001
      7999      7997      8000      8002      7999      7997      8000      8003
      8000      8003      8006      8007      8000      8003      8006      8008
      8000      8003      8006      8009      8001      8000      8003      8004
      8001      8000      8003      8005      8001      8000      8003      8006
      8002      8000      8003      8004      8002      8000      8003      8005
      8002      8000      8003      8006      8003      8006      8009      8010
      8003      8006      8009      8011      8003      8006      8009      8012
      8004      8003      8006      8007      8004      8003      8006      8008
      8004      8003      8006      8009      8005      8003      8006      8007
      8005      8003      8006      8008      8005      8003      8006      8009
      8006      8009      8012      8013      8006      8009      8012      8014
      8007      8006      8009      8010      8007      8006      8009      8011
      8007      8006      8009      8012      8008      8006      8009      8010
      8008      8006      8009      8011      8008      8006      8009      8012
      8009      8012      8014      8015      8009      8012      8014      8016
      8010      8009      8012      8013      8010      8009      8012      8014
      8011      8009      8012      8013      8011      8009      8012      8014
      8012      8014      8016      8017      8012      8014      8016      8018
      8012      8014      8016      8019      8013      8012      8014      8015
      8013      8012      8014      8016      8014      8016      8019      8020
      8014      8016      8019      8021      8014      8016      8019      8022
      8015      8014      8016      8017      8015      8014      8016      8018
      8015      8014      8016      8019      8016      8019      8022      8023
      8016      8019      8022      8024      8016      8019      8022      8025
      8017      8016      8019      8020      8017      8016      8019      8021
      8017      8016      8019      8022      8018      8016      8019      8020
      8018      8016      8019      8021      8018      8016      8019      8022
      8019      8022      8025      8026      8019      8022      8025      8027
      8019      8022      8025      8028      8020      8019      8022      8023
      8020      8019      8022      8024      8020      8019      8022      8025
      8021      8019      8022      8023      8021      8019      8022      8024
      8021      8019      8022      8025      8022      8025      8028      8029
      8022      8025      8028      8030      8022      8025      8028      8031
      8023      8022      8025      8026      8023      8022      8025      8027
      8023      8022      8025      8028      8024      8022      8025      8026
      8024      8022      8025      8027      8024      8022      8025      8028
      8025      8028      8031      8032      8025      8028      8031      8033
      8025      8028      8031      8034      8026      8025      8028      8029
      8026      8025      8028      8030      8026      8025      8028      8031
      8027      8025      8028      8029      8027      8025      8028      8030
      8027      8025      8028      8031      8028      8031      8034      8035
      8028      8031      8034      8036      8028      8031      8034      8037
      8029      8028      8031      8032      8029      8028      8031      8033
      8029      8028      8031      8034      8030      8028      8031      8032
      8030      8028      8031      8033      8030      8028      8031      8034
      8031      8034      8037      8038      8031      8034      8037      8039
      8031      8034      8037      8040      8032      8031      8034      8035
      8032      8031      8034      8036      8032      8031      8034      8037
      8033      8031      8034      8035      8033      8031      8034      8036
      8033      8031      8034      8037      8035      8034      8037      8038
      8035      8034      8037      8039      8035      8034      8037      8040
      8036      8034      8037      8038      8036      8034      8037      8039
      8036      8034      8037      8040      8041      8044      8047      8048
      8041      8044      8047      8049      8041      8044      8047      8050
      8042      8041      8044      8045      8042      8041      8044      8046
      8042      8041      8044      8047      8043      8041      8044      8045
      8043      8041      8044      8046      8043      8041      8044      8047
      8044      8047      8050      8051      8044      8047      8050      8052
      8044      8047      8050      8053      8045      8044      8047      8048
      8045      8044      8047      8049      8045      8044      8047      8050
      8046      8044      8047      8048      8046      8044      8047      8049
      8046      8044      8047      8050      8047      8050      8053      8054
      8047      8050      8053      8055      8047      8050      8053      8056
      8048      8047      8050      8051      8048      8047      8050      8052
      8048      8047      8050      8053      8049      8047      8050      8051
      8049      8047      8050      8052      8049      8047      8050      8053
      8050      8053      8056      8057      8050      8053      8056      8058
      8050      8053      8056      8059      8051      8050      8053      8054
      8051      8050      8053      8055      8051      8050      8053      8056
      8052      8050      8053      8054      8052      8050      8053      8055
      8052      8050      8053      8056      8053      8056      8059      8060
      8053      8056      8059      8061      8053      8056      8059      8062
      8054      8053      8056      8057      8054      8053      8056      8058
      8054      8053      8056      8059      8055      8053      8056      8057
      8055      8053      8056      8058      8055      8053      8056      8059
      8056      8059      8062      8063      8056      8059      8062      8064
      8056      8059      8062      8065      8057      8056      8059      8060
      8057      8056      8059      8061      8057      8056      8059      8062
      8058      8056      8059      8060      8058      8056      8059      8061
      8058      8056      8059      8062      8059      8062      8065      8066
      8059      8062      8065      8067      8059      8062      8065      8068
      8060      8059      8062      8063      8060      8059      8062      8064
      8060      8059      8062      8065      8061      8059      8062      8063
      8061      8059      8062      8064      8061      8059      8062      8065
      8062      8065      8068      8069      8062      8065      8068      8070
      8062      8065      8068      8071      8063      8062      8065      8066
      8063      8062      8065      8067      8063      8062      8065      8068
      8064      8062      8065      8066      8064      8062      8065      8067
      8064      8062      8065      8068      8065      8068      8071      8072
      8065      8068      8071      8073      8065      8068      8071      8074
      8066      8065      8068      8069      8066      8065      8068      8070
      8066      8065      8068      8071      8067      8065      8068      8069
      8067      8065      8068      8070      8067      8065      8068      8071
      8068      8071      8074      8075      8068      8071      8074      8076
      8068      8071      8074      8077      8069      8068      8071      8072
      8069      8068      8071      8073      8069      8068      8071      8074
      8070      8068      8071      8072      8070      8068      8071      8073
      8070      8068      8071      8074      8071      8074      8077      8078
      8071      8074      8077      8079      8071      8074      8077      8080
      8072      8071      8074      8075      8072      8071      8074      8076
      8072      8071      8074      8077      8073      8071      8074      8075
      8073      8071      8074      8076      8073      8071      8074      8077
      8074      8077      8080      8081      8074      8077      8080      8082
      8074      8077      8080      8083      8075      8074      8077      8078
      8075      8074      8077      8079      8075      8074      8077      8080
      8076      8074      8077      8078      8076      8074      8077      8079
      8076      8074      8077      8080      8078      8077      8080      8081
      8078      8077      8080      8082      8078      8077      8080      8083
      8079      8077      8080      8081      8079      8077      8080      8082
      8079      8077      8080      8083      8084      8085      8100      8101
      8084      8085      8100      8102      8084      8085      8100      8106
      8085      8084      8088      8089      8085      8084      8088      8090
      8085      8084      8088      8091      8085      8084      8092      8093
      8085      8084      8092      8094      8085      8084      8092      8095
      8085      8084      8096      8097      8085      8084      8096      8098
      8085      8084      8096      8099      8085      8100      8106      8103
      8086      8085      8084      8088      8086      8085      8084      8092
      8086      8085      8084      8096      8086      8085      8100      8101
      8086      8085      8100      8102      8086      8085      8100      8106
      8087      8085      8084      8088      8087      8085      8084      8092
      8087      8085      8084      8096      8087      8085      8100      8101
      8087      8085      8100      8102      8087      8085      8100      8106
      8088      8084      8085      8100      8088      8084      8092      8093
      8088      8084      8092      8094      8088      8084      8092      8095
      8088      8084      8096      8097      8088      8084      8096      8098
      8088      8084      8096      8099      8089      8088      8084      8092
      8089      8088      8084      8096      8090      8088      8084      8092
      8090      8088      8084      8096      8091      8088      8084      8092
      8091      8088      8084      8096      8092      8084      8085      8100
      8092      8084      8096      8097      8092      8084      8096      8098
      8092      8084      8096      8099      8093      8092      8084      8096
      8094      8092      8084      8096      8095      8092      8084      8096
      8096      8084      8085      8100      8100      8106      8103      8104
      8100      8106      8103      8105      8100      8106      8103      8107
      8101      8100      8106      8103      8102      8100      8106      8103
      8103      8107      8108      8109      8103      8107      8108      8110
      8103      8107      8108      8111      8104      8103      8107      8108
      8105      8103      8107      8108      8106      8103      8107      8108
      8107      8108      8111      8112      8107      8108      8111      8113
      8107      8108      8111      8119      8108      8111      8113      8114
      8108      8111      8119      8120      8108      8111      8119      8121
      8108      8111      8119      8122      8109      8108      8111      8112
      8109      8108      8111      8113      8109      8108      8111      8119
      8110      8108      8111      8112      8110      8108      8111      8113
      8110      8108      8111      8119      8111      8113      8114      8115
      8111      8113      8114      8116      8111      8119      8122      8123
      8112      8111      8113      8114      8112      8111      8119      8120
      8112      8111      8119      8121      8112      8111      8119      8122
      8113      8111      8119      8120      8113      8111      8119      8121
      8113      8111      8119      8122      8113      8114      8116      8117
      8113      8114      8116      8118      8113      8114      8116      8128
      8114      8113      8111      8119      8114      8116      8128      8129
      8114      8116      8128      8130      8114      8116      8128      8131
      8115      8114      8116      8117      8115      8114      8116      8118
      8115      8114      8116      8128      8116      8128      8131      8132
      8116      8128      8131      8133      8116      8128      8131      8134
      8117      8116      8128      8129      8117      8116      8128      8130
      8117      8116      8128      8131      8118      8116      8128      8129
      8118      8116      8128      8130      8118      8116      8128      8131
      8119      8122      8123      8124      8119      8122      8123      8125
      8120      8119      8122      8123      8121      8119      8122      8123
      8122      8123      8125      8126      8122      8123      8125      8127
      8122      8123      8125      8175      8123      8125      8175      8176
      8123      8125      8175      8177      8123      8125      8175      8178
      8124      8123      8125      8126      8124      8123      8125      8127
      8124      8123      8125      8175      8125      8175      8178      8179
      8125      8175      8178      8180      8125      8175      8178      8181
      8126      8125      8175      8176      8126      8125      8175      8177
      8126      8125      8175      8178      8127      8125      8175      8176
      8127      8125      8175      8177      8127      8125      8175      8178
      8128      8131      8134      8135      8128      8131      8134      8136
      8128      8131      8134      8137      8129      8128      8131      8132
      8129      8128      8131      8133      8129      8128      8131      8134
      8130      8128      8131      8132      8130      8128      8131      8133
      8130      8128      8131      8134      8131      8134      8137      8138
      8131      8134      8137      8139      8131      8134      8137      8140
      8132      8131      8134      8135      8132      8131      8134      8136
      8132      8131      8134      8137      8133      8131      8134      8135
      8133      8131      8134      8136      8133      8131      8134      8137
      8134      8137      8140      8141      8134      8137      8140      8142
      8134      8137      8140      8143      8135      8134      8137      8138
      8135      8134      8137      8139      8135      8134      8137      8140
      8136      8134      8137      8138      8136      8134      8137      8139
      8136      8134      8137      8140      8137      8140      8143      8144
      8137      8140      8143      8145      8137      8140      8143      8146
      8138      8137      8140      8141      8138      8137      8140      8142
      8138      8137      8140      8143      8139      8137      8140      8141
      8139      8137      8140      8142      8139      8137      8140      8143
      8140      8143      8146      8147      8140      8143      8146      8148
      8141      8140      8143      8144      8141      8140      8143      8145
      8141      8140      8143      8146      8142      8140      8143      8144
      8142      8140      8143      8145      8142      8140      8143      8146
      8143      8146      8148      8149      8143      8146      8148      8150
      8144      8143      8146      8147      8144      8143      8146      8148
      8145      8143      8146      8147      8145      8143      8146      8148
      8146      8148      8150      8151      8146      8148      8150      8152
      8146      8148      8150      8153      8147      8146      8148      8149
      8147      8146      8148      8150      8148      8150      8153      8154
      8148      8150      8153      8155      8148      8150      8153      8156
      8149      8148      8150      8151      8149      8148      8150      8152
      8149      8148      8150      8153      8150      8153      8156      8157
      8150      8153      8156      8158      8150      8153      8156      8159
      8151      8150      8153      8154      8151      8150      8153      8155
      8151      8150      8153      8156      8152      8150      8153      8154
      8152      8150      8153      8155      8152      8150      8153      8156
      8153      8156      8159      8160      8153      8156      8159      8161
      8153      8156      8159      8162      8154      8153      8156      8157
      8154      8153      8156      8158      8154      8153      8156      8159
      8155      8153      8156      8157      8155      8153      8156      8158
      8155      8153      8156      8159      8156      8159      8162      8163
      8156      8159      8162      8164      8156      8159      8162      8165
      8157      8156      8159      8160      8157      8156      8159      8161
      8157      8156      8159      8162      8158      8156      8159      8160
      8158      8156      8159      8161      8158      8156      8159      8162
      8159      8162      8165      8166      8159      8162      8165      8167
      8159      8162      8165      8168      8160      8159      8162      8163
      8160      8159      8162      8164      8160      8159      8162      8165
      8161      8159      8162      8163      8161      8159      8162      8164
      8161      8159      8162      8165      8162      8165      8168      8169
      8162      8165      8168      8170      8162      8165      8168      8171
      8163      8162      8165      8166      8163      8162      8165      8167
      8163      8162      8165      8168      8164      8162      8165      8166
      8164      8162      8165      8167      8164      8162      8165      8168
      8165      8168      8171      8172      8165      8168      8171      8173
      8165      8168      8171      8174      8166      8165      8168      8169
      8166      8165      8168      8170      8166      8165      8168      8171
      8167      8165      8168      8169      8167      8165      8168      8170
      8167      8165      8168      8171      8169      8168      8171      8172
      8169      8168      8171      8173      8169      8168      8171      8174
      8170      8168      8171      8172      8170      8168      8171      8173
      8170      8168      8171      8174      8175      8178      8181      8182
      8175      8178      8181      8183      8175      8178      8181      8184
      8176      8175      8178      8179      8176      8175      8178      8180
      8176      8175      8178      8181      8177      8175      8178      8179
      8177      8175      8178      8180      8177      8175      8178      8181
      8178      8181      8184      8185      8178      8181      8184      8186
      8178      8181      8184      8187      8179      8178      8181      8182
      8179      8178      8181      8183      8179      8178      8181      8184
      8180      8178      8181      8182      8180      8178      8181      8183
      8180      8178      8181      8184      8181      8184      8187      8188
      8181      8184      8187      8189      8181      8184      8187      8190
      8182      8181      8184      8185      8182      8181      8184      8186
      8182      8181      8184      8187      8183      8181      8184      8185
      8183      8181      8184      8186      8183      8181      8184      8187
      8184      8187      8190      8191      8184      8187      8190      8192
      8184      8187      8190      8193      8185      8184      8187      8188
      8185      8184      8187      8189      8185      8184      8187      8190
      8186      8184      8187      8188      8186      8184      8187      8189
      8186      8184      8187      8190      8187      8190      8193      8194
      8187      8190      8193      8195      8187      8190      8193      8196
      8188      8187      8190      8191      8188      8187      8190      8192
      8188      8187      8190      8193      8189      8187      8190      8191
      8189      8187      8190      8192      8189      8187      8190      8193
      8190      8193      8196      8197      8190      8193      8196      8198
      8190      8193      8196      8199      8191      8190      8193      8194
      8191      8190      8193      8195      8191      8190      8193      8196
      8192      8190      8193      8194      8192      8190      8193      8195
      8192      8190      8193      8196      8193      8196      8199      8200
      8193      8196      8199      8201      8193      8196      8199      8202
      8194      8193      8196      8197      8194      8193      8196      8198
      8194      8193      8196      8199      8195      8193      8196      8197
      8195      8193      8196      8198      8195      8193      8196      8199
      8196      8199      8202      8203      8196      8199      8202      8204
      8196      8199      8202      8205      8197      8196      8199      8200
      8197      8196      8199      8201      8197      8196      8199      8202
      8198      8196      8199      8200      8198      8196      8199      8201
      8198      8196      8199      8202      8199      8202      8205      8206
      8199      8202      8205      8207      8199      8202      8205      8208
      8200      8199      8202      8203      8200      8199      8202      8204
      8200      8199      8202      8205      8201      8199      8202      8203
      8201      8199      8202      8204      8201      8199      8202      8205
      8202      8205      8208      8209      8202      8205      8208      8210
      8202      8205      8208      8211      8203      8202      8205      8206
      8203      8202      8205      8207      8203      8202      8205      8208
      8204      8202      8205      8206      8204      8202      8205      8207
      8204      8202      8205      8208      8205      8208      8211      8212
      8205      8208      8211      8213      8205      8208      8211      8214
      8206      8205      8208      8209      8206      8205      8208      8210
      8206      8205      8208      8211      8207      8205      8208      8209
      8207      8205      8208      8210      8207      8205      8208      8211
      8208      8211      8214      8215      8208      8211      8214      8216
      8208      8211      8214      8217      8209      8208      8211      8212
      8209      8208      8211      8213      8209      8208      8211      8214
      8210      8208      8211      8212      8210      8208      8211      8213
      8210      8208      8211      8214      8212      8211      8214      8215
      8212      8211      8214      8216      8212      8211      8214      8217
      8213      8211      8214      8215      8213      8211      8214      8216
      8213      8211      8214      8217      8218      8219      8234      8235
      8218      8219      8234      8236      8218      8219      8234      8240
      8219      8218      8222      8223      8219      8218      8222      8224
      8219      8218      8222      8225      8219      8218      8226      8227
      8219      8218      8226      8228      8219      8218      8226      8229
      8219      8218      8230      8231      8219      8218      8230      8232
      8219      8218      8230      8233      8219      8234      8240      8237
      8220      8219      8218      8222      8220      8219      8218      8226
      8220      8219      8218      8230      8220      8219      8234      8235
      8220      8219      8234      8236      8220      8219      8234      8240
      8221      8219      8218      8222      8221      8219      8218      8226
      8221      8219      8218      8230      8221      8219      8234      8235
      8221      8219      8234      8236      8221      8219      8234      8240
      8222      8218      8219      8234      8222      8218      8226      8227
      8222      8218      8226      8228      8222      8218      8226      8229
      8222      8218      8230      8231      8222      8218      8230      8232
      8222      8218      8230      8233      8223      8222      8218      8226
      8223      8222      8218      8230      8224      8222      8218      8226
      8224      8222      8218      8230      8225      8222      8218      8226
      8225      8222      8218      8230      8226      8218      8219      8234
      8226      8218      8230      8231      8226      8218      8230      8232
      8226      8218      8230      8233      8227      8226      8218      8230
      8228      8226      8218      8230      8229      8226      8218      8230
      8230      8218      8219      8234      8234      8240      8237      8238
      8234      8240      8237      8239      8234      8240      8237      8241
      8235      8234      8240      8237      8236      8234      8240      8237
      8237      8241      8242      8243      8237      8241      8242      8244
      8237      8241      8242      8245      8238      8237      8241      8242
      8239      8237      8241      8242      8240      8237      8241      8242
      8241      8242      8245      8246      8241      8242      8245      8247
      8241      8242      8245      8253      8242      8245      8247      8248
      8242      8245      8253      8254      8242      8245      8253      8255
      8242      8245      8253      8256      8243      8242      8245      8246
      8243      8242      8245      8247      8243      8242      8245      8253
      8244      8242      8245      8246      8244      8242      8245      8247
      8244      8242      8245      8253      8245      8247      8248      8249
      8245      8247      8248      8250      8245      8253      8256      8257
      8246      8245      8247      8248      8246      8245      8253      8254
      8246      8245      8253      8255      8246      8245      8253      8256
      8247      8245      8253      8254      8247      8245      8253      8255
      8247      8245      8253      8256      8247      8248      8250      8251
      8247      8248      8250      8252      8247      8248      8250      8262
      8248      8247      8245      8253      8248      8250      8262      8263
      8248      8250      8262      8264      8248      8250      8262      8265
      8249      8248      8250      8251      8249      8248      8250      8252
      8249      8248      8250      8262      8250      8262      8265      8266
      8250      8262      8265      8267      8250      8262      8265      8268
      8251      8250      8262      8263      8251      8250      8262      8264
      8251      8250      8262      8265      8252      8250      8262      8263
      8252      8250      8262      8264      8252      8250      8262      8265
      8253      8256      8257      8258      8253      8256      8257      8259
      8254      8253      8256      8257      8255      8253      8256      8257
      8256      8257      8259      8260      8256      8257      8259      8261
      8256      8257      8259      8309      8257      8259      8309      8310
      8257      8259      8309      8311      8257      8259      8309      8312
      8258      8257      8259      8260      8258      8257      8259      8261
      8258      8257      8259      8309      8259      8309      8312      8313
      8259      8309      8312      8314      8259      8309      8312      8315
      8260      8259      8309      8310      8260      8259      8309      8311
      8260      8259      8309      8312      8261      8259      8309      8310
      8261      8259      8309      8311      8261      8259      8309      8312
      8262      8265      8268      8269      8262      8265      8268      8270
      8262      8265      8268      8271      8263      8262      8265      8266
      8263      8262      8265      8267      8263      8262      8265      8268
      8264      8262      8265      8266      8264      8262      8265      8267
      8264      8262      8265      8268      8265      8268      8271      8272
      8265      8268      8271      8273      8265      8268      8271      8274
      8266      8265      8268      8269      8266      8265      8268      8270
      8266      8265      8268      8271      8267      8265      8268      8269
      8267      8265      8268      8270      8267      8265      8268      8271
      8268      8271      8274      8275      8268      8271      8274      8276
      8268      8271      8274      8277      8269      8268      8271      8272
      8269      8268      8271      8273      8269      8268      8271      8274
      8270      8268      8271      8272      8270      8268      8271      8273
      8270      8268      8271      8274      8271      8274      8277      8278
      8271      8274      8277      8279      8271      8274      8277      8280
      8272      8271      8274      8275      8272      8271      8274      8276
      8272      8271      8274      8277      8273      8271      8274      8275
      8273      8271      8274      8276      8273      8271      8274      8277
      8274      8277      8280      8281      8274      8277      8280      8282
      8275      8274      8277      8278      8275      8274      8277      8279
      8275      8274      8277      8280      8276      8274      8277      8278
      8276      8274      8277      8279      8276      8274      8277      8280
      8277      8280      8282      8283      8277      8280      8282      8284
      8278      8277      8280      8281      8278      8277      8280      8282
      8279      8277      8280      8281      8279      8277      8280      8282
      8280      8282      8284      8285      8280      8282      8284      8286
      8280      8282      8284      8287      8281      8280      8282      8283
      8281      8280      8282      8284      8282      8284      8287      8288
      8282      8284      8287      8289      8282      8284      8287      8290
      8283      8282      8284      8285      8283      8282      8284      8286
      8283      8282      8284      8287      8284      8287      8290      8291
      8284      8287      8290      8292      8284      8287      8290      8293
      8285      8284      8287      8288      8285      8284      8287      8289
      8285      8284      8287      8290      8286      8284      8287      8288
      8286      8284      8287      8289      8286      8284      8287      8290
      8287      8290      8293      8294      8287      8290      8293      8295
      8287      8290      8293      8296      8288      8287      8290      8291
      8288      8287      8290      8292      8288      8287      8290      8293
      8289      8287      8290      8291      8289      8287      8290      8292
      8289      8287      8290      8293      8290      8293      8296      8297
      8290      8293      8296      8298      8290      8293      8296      8299
      8291      8290      8293      8294      8291      8290      8293      8295
      8291      8290      8293      8296      8292      8290      8293      8294
      8292      8290      8293      8295      8292      8290      8293      8296
      8293      8296      8299      8300      8293      8296      8299      8301
      8293      8296      8299      8302      8294      8293      8296      8297
      8294      8293      8296      8298      8294      8293      8296      8299
      8295      8293      8296      8297      8295      8293      8296      8298
      8295      8293      8296      8299      8296      8299      8302      8303
      8296      8299      8302      8304      8296      8299      8302      8305
      8297      8296      8299      8300      8297      8296      8299      8301
      8297      8296      8299      8302      8298      8296      8299      8300
      8298      8296      8299      8301      8298      8296      8299      8302
      8299      8302      8305      8306      8299      8302      8305      8307
      8299      8302      8305      8308      8300      8299      8302      8303
      8300      8299      8302      8304      8300      8299      8302      8305
      8301      8299      8302      8303      8301      8299      8302      8304
      8301      8299      8302      8305      8303      8302      8305      8306
      8303      8302      8305      8307      8303      8302      8305      8308
      8304      8302      8305      8306      8304      8302      8305      8307
      8304      8302      8305      8308      8309      8312      8315      8316
      8309      8312      8315      8317      8309      8312      8315      8318
      8310      8309      8312      8313      8310      8309      8312      8314
      8310      8309      8312      8315      8311      8309      8312      8313
      8311      8309      8312      8314      8311      8309      8312      8315
      8312      8315      8318      8319      8312      8315      8318      8320
      8312      8315      8318      8321      8313      8312      8315      8316
      8313      8312      8315      8317      8313      8312      8315      8318
      8314      8312      8315      8316      8314      8312      8315      8317
      8314      8312      8315      8318      8315      8318      8321      8322
      8315      8318      8321      8323      8315      8318      8321      8324
      8316      8315      8318      8319      8316      8315      8318      8320
      8316      8315      8318      8321      8317      8315      8318      8319
      8317      8315      8318      8320      8317      8315      8318      8321
      8318      8321      8324      8325      8318      8321      8324      8326
      8318      8321      8324      8327      8319      8318      8321      8322
      8319      8318      8321      8323      8319      8318      8321      8324
      8320      8318      8321      8322      8320      8318      8321      8323
      8320      8318      8321      8324      8321      8324      8327      8328
      8321      8324      8327      8329      8321      8324      8327      8330
      8322      8321      8324      8325      8322      8321      8324      8326
      8322      8321      8324      8327      8323      8321      8324      8325
      8323      8321      8324      8326      8323      8321      8324      8327
      8324      8327      8330      8331      8324      8327      8330      8332
      8324      8327      8330      8333      8325      8324      8327      8328
      8325      8324      8327      8329      8325      8324      8327      8330
      8326      8324      8327      8328      8326      8324      8327      8329
      8326      8324      8327      8330      8327      8330      8333      8334
      8327      8330      8333      8335      8327      8330      8333      8336
      8328      8327      8330      8331      8328      8327      8330      8332
      8328      8327      8330      8333      8329      8327      8330      8331
      8329      8327      8330      8332      8329      8327      8330      8333
      8330      8333      8336      8337      8330      8333      8336      8338
      8330      8333      8336      8339      8331      8330      8333      8334
      8331      8330      8333      8335      8331      8330      8333      8336
      8332      8330      8333      8334      8332      8330      8333      8335
      8332      8330      8333      8336      8333      8336      8339      8340
      8333      8336      8339      8341      8333      8336      8339      8342
      8334      8333      8336      8337      8334      8333      8336      8338
      8334      8333      8336      8339      8335      8333      8336      8337
      8335      8333      8336      8338      8335      8333      8336      8339
      8336      8339      8342      8343      8336      8339      8342      8344
      8336      8339      8342      8345      8337      8336      8339      8340
      8337      8336      8339      8341      8337      8336      8339      8342
      8338      8336      8339      8340      8338      8336      8339      8341
      8338      8336      8339      8342      8339      8342      8345      8346
      8339      8342      8345      8347      8339      8342      8345      8348
      8340      8339      8342      8343      8340      8339      8342      8344
      8340      8339      8342      8345      8341      8339      8342      8343
      8341      8339      8342      8344      8341      8339      8342      8345
      8342      8345      8348      8349      8342      8345      8348      8350
      8342      8345      8348      8351      8343      8342      8345      8346
      8343      8342      8345      8347      8343      8342      8345      8348
      8344      8342      8345      8346      8344      8342      8345      8347
      8344      8342      8345      8348      8346      8345      8348      8349
      8346      8345      8348      8350      8346      8345      8348      8351
      8347      8345      8348      8349      8347      8345      8348      8350
      8347      8345      8348      8351      8352      8353      8368      8369
      8352      8353      8368      8370      8352      8353      8368      8374
      8353      8352      8356      8357      8353      8352      8356      8358
      8353      8352      8356      8359      8353      8352      8360      8361
      8353      8352      8360      8362      8353      8352      8360      8363
      8353      8352      8364      8365      8353      8352      8364      8366
      8353      8352      8364      8367      8353      8368      8374      8371
      8354      8353      8352      8356      8354      8353      8352      8360
      8354      8353      8352      8364      8354      8353      8368      8369
      8354      8353      8368      8370      8354      8353      8368      8374
      8355      8353      8352      8356      8355      8353      8352      8360
      8355      8353      8352      8364      8355      8353      8368      8369
      8355      8353      8368      8370      8355      8353      8368      8374
      8356      8352      8353      8368      8356      8352      8360      8361
      8356      8352      8360      8362      8356      8352      8360      8363
      8356      8352      8364      8365      8356      8352      8364      8366
      8356      8352      8364      8367      8357      8356      8352      8360
      8357      8356      8352      8364      8358      8356      8352      8360
      8358      8356      8352      8364      8359      8356      8352      8360
      8359      8356      8352      8364      8360      8352      8353      8368
      8360      8352      8364      8365      8360      8352      8364      8366
      8360      8352      8364      8367      8361      8360      8352      8364
      8362      8360      8352      8364      8363      8360      8352      8364
      8364      8352      8353      8368      8368      8374      8371      8372
      8368      8374      8371      8373      8368      8374      8371      8375
      8369      8368      8374      8371      8370      8368      8374      8371
      8371      8375      8376      8377      8371      8375      8376      8378
      8371      8375      8376      8379      8372      8371      8375      8376
      8373      8371      8375      8376      8374      8371      8375      8376
      8375      8376      8379      8380      8375      8376      8379      8381
      8375      8376      8379      8387      8376      8379      8381      8382
      8376      8379      8387      8388      8376      8379      8387      8389
      8376      8379      8387      8390      8377      8376      8379      8380
      8377      8376      8379      8381      8377      8376      8379      8387
      8378      8376      8379      8380      8378      8376      8379      8381
      8378      8376      8379      8387      8379      8381      8382      8383
      8379      8381      8382      8384      8379      8387      8390      8391
      8380      8379      8381      8382      8380      8379      8387      8388
      8380      8379      8387      8389      8380      8379      8387      8390
      8381      8379      8387      8388      8381      8379      8387      8389
      8381      8379      8387      8390      8381      8382      8384      8385
      8381      8382      8384      8386      8381      8382      8384      8396
      8382      8381      8379      8387      8382      8384      8396      8397
      8382      8384      8396      8398      8382      8384      8396      8399
      8383      8382      8384      8385      8383      8382      8384      8386
      8383      8382      8384      8396      8384      8396      8399      8400
      8384      8396      8399      8401      8384      8396      8399      8402
      8385      8384      8396      8397      8385      8384      8396      8398
      8385      8384      8396      8399      8386      8384      8396      8397
      8386      8384      8396      8398      8386      8384      8396      8399
      8387      8390      8391      8392      8387      8390      8391      8393
      8388      8387      8390      8391      8389      8387      8390      8391
      8390      8391      8393      8394      8390      8391      8393      8395
      8390      8391      8393      8443      8391      8393      8443      8444
      8391      8393      8443      8445      8391      8393      8443      8446
      8392      8391      8393      8394      8392      8391      8393      8395
      8392      8391      8393      8443      8393      8443      8446      8447
      8393      8443      8446      8448      8393      8443      8446      8449
      8394      8393      8443      8444      8394      8393      8443      8445
      8394      8393      8443      8446      8395      8393      8443      8444
      8395      8393      8443      8445      8395      8393      8443      8446
      8396      8399      8402      8403      8396      8399      8402      8404
      8396      8399      8402      8405      8397      8396      8399      8400
      8397      8396      8399      8401      8397      8396      8399      8402
      8398      8396      8399      8400      8398      8396      8399      8401
      8398      8396      8399      8402      8399      8402      8405      8406
      8399      8402      8405      8407      8399      8402      8405      8408
      8400      8399      8402      8403      8400      8399      8402      8404
      8400      8399      8402      8405      8401      8399      8402      8403
      8401      8399      8402      8404      8401      8399      8402      8405
      8402      8405      8408      8409      8402      8405      8408      8410
      8402      8405      8408      8411      8403      8402      8405      8406
      8403      8402      8405      8407      8403      8402      8405      8408
      8404      8402      8405      8406      8404      8402      8405      8407
      8404      8402      8405      8408      8405      8408      8411      8412
      8405      8408      8411      8413      8405      8408      8411      8414
      8406      8405      8408      8409      8406      8405      8408      8410
      8406      8405      8408      8411      8407      8405      8408      8409
      8407      8405      8408      8410      8407      8405      8408      8411
      8408      8411      8414      8415      8408      8411      8414      8416
      8409      8408      8411      8412      8409      8408      8411      8413
      8409      8408      8411      8414      8410      8408      8411      8412
      8410      8408      8411      8413      8410      8408      8411      8414
      8411      8414      8416      8417      8411      8414      8416      8418
      8412      8411      8414      8415      8412      8411      8414      8416
      8413      8411      8414      8415      8413      8411      8414      8416
      8414      8416      8418      8419      8414      8416      8418      8420
      8414      8416      8418      8421      8415      8414      8416      8417
      8415      8414      8416      8418      8416      8418      8421      8422
      8416      8418      8421      8423      8416      8418      8421      8424
      8417      8416      8418      8419      8417      8416      8418      8420
      8417      8416      8418      8421      8418      8421      8424      8425
      8418      8421      8424      8426      8418      8421      8424      8427
      8419      8418      8421      8422      8419      8418      8421      8423
      8419      8418      8421      8424      8420      8418      8421      8422
      8420      8418      8421      8423      8420      8418      8421      8424
      8421      8424      8427      8428      8421      8424      8427      8429
      8421      8424      8427      8430      8422      8421      8424      8425
      8422      8421      8424      8426      8422      8421      8424      8427
      8423      8421      8424      8425      8423      8421      8424      8426
      8423      8421      8424      8427      8424      8427      8430      8431
      8424      8427      8430      8432      8424      8427      8430      8433
      8425      8424      8427      8428      8425      8424      8427      8429
      8425      8424      8427      8430      8426      8424      8427      8428
      8426      8424      8427      8429      8426      8424      8427      8430
      8427      8430      8433      8434      8427      8430      8433      8435
      8427      8430      8433      8436      8428      8427      8430      8431
      8428      8427      8430      8432      8428      8427      8430      8433
      8429      8427      8430      8431      8429      8427      8430      8432
      8429      8427      8430      8433      8430      8433      8436      8437
      8430      8433      8436      8438      8430      8433      8436      8439
      8431      8430      8433      8434      8431      8430      8433      8435
      8431      8430      8433      8436      8432      8430      8433      8434
      8432      8430      8433      8435      8432      8430      8433      8436
      8433      8436      8439      8440      8433      8436      8439      8441
      8433      8436      8439      8442      8434      8433      8436      8437
      8434      8433      8436      8438      8434      8433      8436      8439
      8435      8433      8436      8437      8435      8433      8436      8438
      8435      8433      8436      8439      8437      8436      8439      8440
      8437      8436      8439      8441      8437      8436      8439      8442
      8438      8436      8439      8440      8438      8436      8439      8441
      8438      8436      8439      8442      8443      8446      8449      8450
      8443      8446      8449      8451      8443      8446      8449      8452
      8444      8443      8446      8447      8444      8443      8446      8448
      8444      8443      8446      8449      8445      8443      8446      8447
      8445      8443      8446      8448      8445      8443      8446      8449
      8446      8449      8452      8453      8446      8449      8452      8454
      8446      8449      8452      8455      8447      8446      8449      8450
      8447      8446      8449      8451      8447      8446      8449      8452
      8448      8446      8449      8450      8448      8446      8449      8451
      8448      8446      8449      8452      8449      8452      8455      8456
      8449      8452      8455      8457      8449      8452      8455      8458
      8450      8449      8452      8453      8450      8449      8452      8454
      8450      8449      8452      8455      8451      8449      8452      8453
      8451      8449      8452      8454      8451      8449      8452      8455
      8452      8455      8458      8459      8452      8455      8458      8460
      8452      8455      8458      8461      8453      8452      8455      8456
      8453      8452      8455      8457      8453      8452      8455      8458
      8454      8452      8455      8456      8454      8452      8455      8457
      8454      8452      8455      8458      8455      8458      8461      8462
      8455      8458      8461      8463      8455      8458      8461      8464
      8456      8455      8458      8459      8456      8455      8458      8460
      8456      8455      8458      8461      8457      8455      8458      8459
      8457      8455      8458      8460      8457      8455      8458      8461
      8458      8461      8464      8465      8458      8461      8464      8466
      8458      8461      8464      8467      8459      8458      8461      8462
      8459      8458      8461      8463      8459      8458      8461      8464
      8460      8458      8461      8462      8460      8458      8461      8463
      8460      8458      8461      8464      8461      8464      8467      8468
      8461      8464      8467      8469      8461      8464      8467      8470
      8462      8461      8464      8465      8462      8461      8464      8466
      8462      8461      8464      8467      8463      8461      8464      8465
      8463      8461      8464      8466      8463      8461      8464      8467
      8464      8467      8470      8471      8464      8467      8470      8472
      8464      8467      8470      8473      8465      8464      8467      8468
      8465      8464      8467      8469      8465      8464      8467      8470
      8466      8464      8467      8468      8466      8464      8467      8469
      8466      8464      8467      8470      8467      8470      8473      8474
      8467      8470      8473      8475      8467      8470      8473      8476
      8468      8467      8470      8471      8468      8467      8470      8472
      8468      8467      8470      8473      8469      8467      8470      8471
      8469      8467      8470      8472      8469      8467      8470      8473
      8470      8473      8476      8477      8470      8473      8476      8478
      8470      8473      8476      8479      8471      8470      8473      8474
      8471      8470      8473      8475      8471      8470      8473      8476
      8472      8470      8473      8474      8472      8470      8473      8475
      8472      8470      8473      8476      8473      8476      8479      8480
      8473      8476      8479      8481      8473      8476      8479      8482
      8474      8473      8476      8477      8474      8473      8476      8478
      8474      8473      8476      8479      8475      8473      8476      8477
      8475      8473      8476      8478      8475      8473      8476      8479
      8476      8479      8482      8483      8476      8479      8482      8484
      8476      8479      8482      8485      8477      8476      8479      8480
      8477      8476      8479      8481      8477      8476      8479      8482
      8478      8476      8479      8480      8478      8476      8479      8481
      8478      8476      8479      8482      8480      8479      8482      8483
      8480      8479      8482      8484      8480      8479      8482      8485
      8481      8479      8482      8483      8481      8479      8482      8484
      8481      8479      8482      8485      8486      8487      8502      8503
      8486      8487      8502      8504      8486      8487      8502      8508
      8487      8486      8490      8491      8487      8486      8490      8492
      8487      8486      8490      8493      8487      8486      8494      8495
      8487      8486      8494      8496      8487      8486      8494      8497
      8487      8486      8498      8499      8487      8486      8498      8500
      8487      8486      8498      8501      8487      8502      8508      8505
      8488      8487      8486      8490      8488      8487      8486      8494
      8488      8487      8486      8498      8488      8487      8502      8503
      8488      8487      8502      8504      8488      8487      8502      8508
      8489      8487      8486      8490      8489      8487      8486      8494
      8489      8487      8486      8498      8489      8487      8502      8503
      8489      8487      8502      8504      8489      8487      8502      8508
      8490      8486      8487      8502      8490      8486      8494      8495
      8490      8486      8494      8496      8490      8486      8494      8497
      8490      8486      8498      8499      8490      8486      8498      8500
      8490      8486      8498      8501      8491      8490      8486      8494
      8491      8490      8486      8498      8492      8490      8486      8494
      8492      8490      8486      8498      8493      8490      8486      8494
      8493      8490      8486      8498      8494      8486      8487      8502
      8494      8486      8498      8499      8494      8486      8498      8500
      8494      8486      8498      8501      8495      8494      8486      8498
      8496      8494      8486      8498      8497      8494      8486      8498
      8498      8486      8487      8502      8502      8508      8505      8506
      8502      8508      8505      8507      8502      8508      8505      8509
      8503      8502      8508      8505      8504      8502      8508      8505
      8505      8509      8510      8511      8505      8509      8510      8512
      8505      8509      8510      8513      8506      8505      8509      8510
      8507      8505      8509      8510      8508      8505      8509      8510
      8509      8510      8513      8514      8509      8510      8513      8515
      8509      8510      8513      8521      8510      8513      8515      8516
      8510      8513      8521      8522      8510      8513      8521      8523
      8510      8513      8521      8524      8511      8510      8513      8514
      8511      8510      8513      8515      8511      8510      8513      8521
      8512      8510      8513      8514      8512      8510      8513      8515
      8512      8510      8513      8521      8513      8515      8516      8517
      8513      8515      8516      8518      8513      8521      8524      8525
      8514      8513      8515      8516      8514      8513      8521      8522
      8514      8513      8521      8523      8514      8513      8521      8524
      8515      8513      8521      8522      8515      8513      8521      8523
      8515      8513      8521      8524      8515      8516      8518      8519
      8515      8516      8518      8520      8515      8516      8518      8530
      8516      8515      8513      8521      8516      8518      8530      8531
      8516      8518      8530      8532      8516      8518      8530      8533
      8517      8516      8518      8519      8517      8516      8518      8520
      8517      8516      8518      8530      8518      8530      8533      8534
      8518      8530      8533      8535      8518      8530      8533      8536
      8519      8518      8530      8531      8519      8518      8530      8532
      8519      8518      8530      8533      8520      8518      8530      8531
      8520      8518      8530      8532      8520      8518      8530      8533
      8521      8524      8525      8526      8521      8524      8525      8527
      8522      8521      8524      8525      8523      8521      8524      8525
      8524      8525      8527      8528      8524      8525      8527      8529
      8524      8525      8527      8577      8525      8527      8577      8578
      8525      8527      8577      8579      8525      8527      8577      8580
      8526      8525      8527      8528      8526      8525      8527      8529
      8526      8525      8527      8577      8527      8577      8580      8581
      8527      8577      8580      8582      8527      8577      8580      8583
      8528      8527      8577      8578      8528      8527      8577      8579
      8528      8527      8577      8580      8529      8527      8577      8578
      8529      8527      8577      8579      8529      8527      8577      8580
      8530      8533      8536      8537      8530      8533      8536      8538
      8530      8533      8536      8539      8531      8530      8533      8534
      8531      8530      8533      8535      8531      8530      8533      8536
      8532      8530      8533      8534      8532      8530      8533      8535
      8532      8530      8533      8536      8533      8536      8539      8540
      8533      8536      8539      8541      8533      8536      8539      8542
      8534      8533      8536      8537      8534      8533      8536      8538
      8534      8533      8536      8539      8535      8533      8536      8537
      8535      8533      8536      8538      8535      8533      8536      8539
      8536      8539      8542      8543      8536      8539      8542      8544
      8536      8539      8542      8545      8537      8536      8539      8540
      8537      8536      8539      8541      8537      8536      8539      8542
      8538      8536      8539      8540      8538      8536      8539      8541
      8538      8536      8539      8542      8539      8542      8545      8546
      8539      8542      8545      8547      8539      8542      8545      8548
      8540      8539      8542      8543      8540      8539      8542      8544
      8540      8539      8542      8545      8541      8539      8542      8543
      8541      8539      8542      8544      8541      8539      8542      8545
      8542      8545      8548      8549      8542      8545      8548      8550
      8543      8542      8545      8546      8543      8542      8545      8547
      8543      8542      8545      8548      8544      8542      8545      8546
      8544      8542      8545      8547      8544      8542      8545      8548
      8545      8548      8550      8551      8545      8548      8550      8552
      8546      8545      8548      8549      8546      8545      8548      8550
      8547      8545      8548      8549      8547      8545      8548      8550
      8548      8550      8552      8553      8548      8550      8552      8554
      8548      8550      8552      8555      8549      8548      8550      8551
      8549      8548      8550      8552      8550      8552      8555      8556
      8550      8552      8555      8557      8550      8552      8555      8558
      8551      8550      8552      8553      8551      8550      8552      8554
      8551      8550      8552      8555      8552      8555      8558      8559
      8552      8555      8558      8560      8552      8555      8558      8561
      8553      8552      8555      8556      8553      8552      8555      8557
      8553      8552      8555      8558      8554      8552      8555      8556
      8554      8552      8555      8557      8554      8552      8555      8558
      8555      8558      8561      8562      8555      8558      8561      8563
      8555      8558      8561      8564      8556      8555      8558      8559
      8556      8555      8558      8560      8556      8555      8558      8561
      8557      8555      8558      8559      8557      8555      8558      8560
      8557      8555      8558      8561      8558      8561      8564      8565
      8558      8561      8564      8566      8558      8561      8564      8567
      8559      8558      8561      8562      8559      8558      8561      8563
      8559      8558      8561      8564      8560      8558      8561      8562
      8560      8558      8561      8563      8560      8558      8561      8564
      8561      8564      8567      8568      8561      8564      8567      8569
      8561      8564      8567      8570      8562      8561      8564      8565
      8562      8561      8564      8566      8562      8561      8564      8567
      8563      8561      8564      8565      8563      8561      8564      8566
      8563      8561      8564      8567      8564      8567      8570      8571
      8564      8567      8570      8572      8564      8567      8570      8573
      8565      8564      8567      8568      8565      8564      8567      8569
      8565      8564      8567      8570      8566      8564      8567      8568
      8566      8564      8567      8569      8566      8564      8567      8570
      8567      8570      8573      8574      8567      8570      8573      8575
      8567      8570      8573      8576      8568      8567      8570      8571
      8568      8567      8570      8572      8568      8567      8570      8573
      8569      8567      8570      8571      8569      8567      8570      8572
      8569      8567      8570      8573      8571      8570      8573      8574
      8571      8570      8573      8575      8571      8570      8573      8576
      8572      8570      8573      8574      8572      8570      8573      8575
      8572      8570      8573      8576      8577      8580      8583      8584
      8577      8580      8583      8585      8577      8580      8583      8586
      8578      8577      8580      8581      8578      8577      8580      8582
      8578      8577      8580      8583      8579      8577      8580      8581
      8579      8577      8580      8582      8579      8577      8580      8583
      8580      8583      8586      8587      8580      8583      8586      8588
      8580      8583      8586      8589      8581      8580      8583      8584
      8581      8580      8583      8585      8581      8580      8583      8586
      8582      8580      8583      8584      8582      8580      8583      8585
      8582      8580      8583      8586      8583      8586      8589      8590
      8583      8586      8589      8591      8583      8586      8589      8592
      8584      8583      8586      8587      8584      8583      8586      8588
      8584      8583      8586      8589      8585      8583      8586      8587
      8585      8583      8586      8588      8585      8583      8586      8589
      8586      8589      8592      8593      8586      8589      8592      8594
      8586      8589      8592      8595      8587      8586      8589      8590
      8587      8586      8589      8591      8587      8586      8589      8592
      8588      8586      8589      8590      8588      8586      8589      8591
      8588      8586      8589      8592      8589      8592      8595      8596
      8589      8592      8595      8597      8589      8592      8595      8598
      8590      8589      8592      8593      8590      8589      8592      8594
      8590      8589      8592      8595      8591      8589      8592      8593
      8591      8589      8592      8594      8591      8589      8592      8595
      8592      8595      8598      8599      8592      8595      8598      8600
      8592      8595      8598      8601      8593      8592      8595      8596
      8593      8592      8595      8597      8593      8592      8595      8598
      8594      8592      8595      8596      8594      8592      8595      8597
      8594      8592      8595      8598      8595      8598      8601      8602
      8595      8598      8601      8603      8595      8598      8601      8604
      8596      8595      8598      8599      8596      8595      8598      8600
      8596      8595      8598      8601      8597      8595      8598      8599
      8597      8595      8598      8600      8597      8595      8598      8601
      8598      8601      8604      8605      8598      8601      8604      8606
      8598      8601      8604      8607      8599      8598      8601      8602
      8599      8598      8601      8603      8599      8598      8601      8604
      8600      8598      8601      8602      8600      8598      8601      8603
      8600      8598      8601      8604      8601      8604      8607      8608
      8601      8604      8607      8609      8601      8604      8607      8610
      8602      8601      8604      8605      8602      8601      8604      8606
      8602      8601      8604      8607      8603      8601      8604      8605
      8603      8601      8604      8606      8603      8601      8604      8607
      8604      8607      8610      8611      8604      8607      8610      8612
      8604      8607      8610      8613      8605      8604      8607      8608
      8605      8604      8607      8609      8605      8604      8607      8610
      8606      8604      8607      8608      8606      8604      8607      8609
      8606      8604      8607      8610      8607      8610      8613      8614
      8607      8610      8613      8615      8607      8610      8613      8616
      8608      8607      8610      8611      8608      8607      8610      8612
      8608      8607      8610      8613      8609      8607      8610      8611
      8609      8607      8610      8612      8609      8607      8610      8613
      8610      8613      8616      8617      8610      8613      8616      8618
      8610      8613      8616      8619      8611      8610      8613      8614
      8611      8610      8613      8615      8611      8610      8613      8616
      8612      8610      8613      8614      8612      8610      8613      8615
      8612      8610      8613      8616      8614      8613      8616      8617
      8614      8613      8616      8618      8614      8613      8616      8619
      8615      8613      8616      8617      8615      8613      8616      8618
      8615      8613      8616      8619      8620      8624      8626      8627
      8620      8624      8626      8628      8620      8624      8629      8630
      8620      8624      8629      8631      8620      8624      8629      8635
      8621      8620      8624      8625      8621      8620      8624      8626
      8621      8620      8624      8629      8622      8620      8624      8625
      8622      8620      8624      8626      8622      8620      8624      8629
      8623      8620      8624      8625      8623      8620      8624      8626
      8623      8620      8624      8629      8624      8629      8635      8632
      8625      8624      8626      8627      8625      8624      8626      8628
      8625      8624      8629      8630      8625      8624      8629      8631
      8625      8624      8629      8635      8626      8624      8629      8630
      8626      8624      8629      8631      8626      8624      8629      8635
      8627      8626      8624      8629      8628      8626      8624      8629
      8629      8635      8632      8633      8629      8635      8632      8634
      8629      8635      8632      8636      8630      8629      8635      8632
      8631      8629      8635      8632      8632      8636      8637      8638
      8632      8636      8637      8639      8632      8636      8637      8640
      8633      8632      8636      8637      8634      8632      8636      8637
      8635      8632      8636      8637      8636      8637      8640      8641
      8636      8637      8640      8642      8636      8637      8640      8648
      8637      8640      8642      8643      8637      8640      8648      8649
      8637      8640      8648      8650      8637      8640      8648      8651
      8638      8637      8640      8641      8638      8637      8640      8642
      8638      8637      8640      8648      8639      8637      8640      8641
      8639      8637      8640      8642      8639      8637      8640      8648
      8640      8642      8643      8644      8640      8642      8643      8645
      8640      8648      8651      8652      8641      8640      8642      8643
      8641      8640      8648      8649      8641      8640      8648      8650
      8641      8640      8648      8651      8642      8640      8648      8649
      8642      8640      8648      8650      8642      8640      8648      8651
      8642      8643      8645      8646      8642      8643      8645      8647
      8642      8643      8645      8657      8643      8642      8640      8648
      8643      8645      8657      8658      8643      8645      8657      8659
      8643      8645      8657      8660      8644      8643      8645      8646
      8644      8643      8645      8647      8644      8643      8645      8657
      8645      8657      8660      8661      8645      8657      8660      8662
      8645      8657      8660      8663      8646      8645      8657      8658
      8646      8645      8657      8659      8646      8645      8657      8660
      8647      8645      8657      8658      8647      8645      8657      8659
      8647      8645      8657      8660      8648      8651      8652      8653
      8648      8651      8652      8654      8649      8648      8651      8652
      8650      8648      8651      8652      8651      8652      8654      8655
      8651      8652      8654      8656      8651      8652      8654      8704
      8652      8654      8704      8705      8652      8654      8704      8706
      8652      8654      8704      8707      8653      8652      8654      8655
      8653      8652      8654      8656      8653      8652      8654      8704
      8654      8704      8707      8708      8654      8704      8707      8709
      8654      8704      8707      8710      8655      8654      8704      8705
      8655      8654      8704      8706      8655      8654      8704      8707
      8656      8654      8704      8705      8656      8654      8704      8706
      8656      8654      8704      8707      8657      8660      8663      8664
      8657      8660      8663      8665      8657      8660      8663      8666
      8658      8657      8660      8661      8658      8657      8660      8662
      8658      8657      8660      8663      8659      8657      8660      8661
      8659      8657      8660      8662      8659      8657      8660      8663
      8660      8663      8666      8667      8660      8663      8666      8668
      8660      8663      8666      8669      8661      8660      8663      8664
      8661      8660      8663      8665      8661      8660      8663      8666
      8662      8660      8663      8664      8662      8660      8663      8665
      8662      8660      8663      8666      8663      8666      8669      8670
      8663      8666      8669      8671      8663      8666      8669      8672
      8664      8663      8666      8667      8664      8663      8666      8668
      8664      8663      8666      8669      8665      8663      8666      8667
      8665      8663      8666      8668      8665      8663      8666      8669
      8666      8669      8672      8673      8666      8669      8672      8674
      8666      8669      8672      8675      8667      8666      8669      8670
      8667      8666      8669      8671      8667      8666      8669      8672
      8668      8666      8669      8670      8668      8666      8669      8671
      8668      8666      8669      8672      8669      8672      8675      8676
      8669      8672      8675      8677      8670      8669      8672      8673
      8670      8669      8672      8674      8670      8669      8672      8675
      8671      8669      8672      8673      8671      8669      8672      8674
      8671      8669      8672      8675      8672      8675      8677      8678
      8672      8675      8677      8679      8673      8672      8675      8676
      8673      8672      8675      8677      8674      8672      8675      8676
      8674      8672      8675      8677      8675      8677      8679      8680
      8675      8677      8679      8681      8675      8677      8679      8682
      8676      8675      8677      8678      8676      8675      8677      8679
      8677      8679      8682      8683      8677      8679      8682      8684
      8677      8679      8682      8685      8678      8677      8679      8680
      8678      8677      8679      8681      8678      8677      8679      8682
      8679      8682      8685      8686      8679      8682      8685      8687
      8679      8682      8685      8688      8680      8679      8682      8683
      8680      8679      8682      8684      8680      8679      8682      8685
      8681      8679      8682      8683      8681      8679      8682      8684
      8681      8679      8682      8685      8682      8685      8688      8689
      8682      8685      8688      8690      8682      8685      8688      8691
      8683      8682      8685      8686      8683      8682      8685      8687
      8683      8682      8685      8688      8684      8682      8685      8686
      8684      8682      8685      8687      8684      8682      8685      8688
      8685      8688      8691      8692      8685      8688      8691      8693
      8685      8688      8691      8694      8686      8685      8688      8689
      8686      8685      8688      8690      8686      8685      8688      8691
      8687      8685      8688      8689      8687      8685      8688      8690
      8687      8685      8688      8691      8688      8691      8694      8695
      8688      8691      8694      8696      8688      8691      8694      8697
      8689      8688      8691      8692      8689      8688      8691      8693
      8689      8688      8691      8694      8690      8688      8691      8692
      8690      8688      8691      8693      8690      8688      8691      8694
      8691      8694      8697      8698      8691      8694      8697      8699
      8691      8694      8697      8700      8692      8691      8694      8695
      8692      8691      8694      8696      8692      8691      8694      8697
      8693      8691      8694      8695      8693      8691      8694      8696
      8693      8691      8694      8697      8694      8697      8700      8701
      8694      8697      8700      8702      8694      8697      8700      8703
      8695      8694      8697      8698      8695      8694      8697      8699
      8695      8694      8697      8700      8696      8694      8697      8698
      8696      8694      8697      8699      8696      8694      8697      8700
      8698      8697      8700      8701      8698      8697      8700      8702
      8698      8697      8700      8703      8699      8697      8700      8701
      8699      8697      8700      8702      8699      8697      8700      8703
      8704      8707      8710      8711      8704      8707      8710      8712
      8704      8707      8710      8713      8705      8704      8707      8708
      8705      8704      8707      8709      8705      8704      8707      8710
      8706      8704      8707      8708      8706      8704      8707      8709
      8706      8704      8707      8710      8707      8710      8713      8714
      8707      8710      8713      8715      8707      8710      8713      8716
      8708      8707      8710      8711      8708      8707      8710      8712
      8708      8707      8710      8713      8709      8707      8710      8711
      8709      8707      8710      8712      8709      8707      8710      8713
      8710      8713      8716      8717      8710      8713      8716      8718
      8710      8713      8716      8719      8711      8710      8713      8714
      8711      8710      8713      8715      8711      8710      8713      8716
      8712      8710      8713      8714      8712      8710      8713      8715
      8712      8710      8713      8716      8713      8716      8719      8720
      8713      8716      8719      8721      8713      8716      8719      8722
      8714      8713      8716      8717      8714      8713      8716      8718
      8714      8713      8716      8719      8715      8713      8716      8717
      8715      8713      8716      8718      8715      8713      8716      8719
      8716      8719      8722      8723      8716      8719      8722      8724
      8716      8719      8722      8725      8717      8716      8719      8720
      8717      8716      8719      8721      8717      8716      8719      8722
      8718      8716      8719      8720      8718      8716      8719      8721
      8718      8716      8719      8722      8719      8722      8725      8726
      8719      8722      8725      8727      8719      8722      8725      8728
      8720      8719      8722      8723      8720      8719      8722      8724
      8720      8719      8722      8725      8721      8719      8722      8723
      8721      8719      8722      8724      8721      8719      8722      8725
      8722      8725      8728      8729      8722      8725      8728      8730
      8722      8725      8728      8731      8723      8722      8725      8726
      8723      8722      8725      8727      8723      8722      8725      8728
      8724      8722      8725      8726      8724      8722      8725      8727
      8724      8722      8725      8728      8725      8728      8731      8732
      8725      8728      8731      8733      8725      8728      8731      8734
      8726      8725      8728      8729      8726      8725      8728      8730
      8726      8725      8728      8731      8727      8725      8728      8729
      8727      8725      8728      8730      8727      8725      8728      8731
      8728      8731      8734      8735      8728      8731      8734      8736
      8728      8731      8734      8737      8729      8728      8731      8732
      8729      8728      8731      8733      8729      8728      8731      8734
      8730      8728      8731      8732      8730      8728      8731      8733
      8730      8728      8731      8734      8731      8734      8737      8738
      8731      8734      8737      8739      8731      8734      8737      8740
      8732      8731      8734      8735      8732      8731      8734      8736
      8732      8731      8734      8737      8733      8731      8734      8735
      8733      8731      8734      8736      8733      8731      8734      8737
      8734      8737      8740      8741      8734      8737      8740      8742
      8734      8737      8740      8743      8735      8734      8737      8738
      8735      8734      8737      8739      8735      8734      8737      8740
      8736      8734      8737      8738      8736      8734      8737      8739
      8736      8734      8737      8740      8737      8740      8743      8744
      8737      8740      8743      8745      8737      8740      8743      8746
      8738      8737      8740      8741      8738      8737      8740      8742
      8738      8737      8740      8743      8739      8737      8740      8741
      8739      8737      8740      8742      8739      8737      8740      8743
      8741      8740      8743      8744      8741      8740      8743      8745
      8741      8740      8743      8746      8742      8740      8743      8744
      8742      8740      8743      8745      8742      8740      8743      8746
      8747      8748      8763      8764      8747      8748      8763      8765
      8747      8748      8763      8769      8748      8747      8751      8752
      8748      8747      8751      8753      8748      8747      8751      8754
      8748      8747      8755      8756      8748      8747      8755      8757
      8748      8747      8755      8758      8748      8747      8759      8760
      8748      8747      8759      8761      8748      8747      8759      8762
      8748      8763      8769      8766      8749      8748      8747      8751
      8749      8748      8747      8755      8749      8748      8747      8759
      8749      8748      8763      8764      8749      8748      8763      8765
      8749      8748      8763      8769      8750      8748      8747      8751
      8750      8748      8747      8755      8750      8748      8747      8759
      8750      8748      8763      8764      8750      8748      8763      8765
      8750      8748      8763      8769      8751      8747      8748      8763
      8751      8747      8755      8756      8751      8747      8755      8757
      8751      8747      8755      8758      8751      8747      8759      8760
      8751      8747      8759      8761      8751      8747      8759      8762
      8752      8751      8747      8755      8752      8751      8747      8759
      8753      8751      8747      8755      8753      8751      8747      8759
      8754      8751      8747      8755      8754      8751      8747      8759
      8755      8747      8748      8763      8755      8747      8759      8760
      8755      8747      8759      8761      8755      8747      8759      8762
      8756      8755      8747      8759      8757      8755      8747      8759
      8758      8755      8747      8759      8759      8747      8748      8763
      8763      8769      8766      8767      8763      8769      8766      8768
      8763      8769      8766      8770      8764      8763      8769      8766
      8765      8763      8769      8766      8766      8770      8771      8772
      8766      8770      8771      8773      8766      8770      8771      8774
      8767      8766      8770      8771      8768      8766      8770      8771
      8769      8766      8770      8771      8770      8771      8774      8775
      8770      8771      8774      8776      8770      8771      8774      8782
      8771      8774      8776      8777      8771      8774      8782      8783
      8771      8774      8782      8784      8771      8774      8782      8785
      8772      8771      8774      8775      8772      8771      8774      8776
      8772      8771      8774      8782      8773      8771      8774      8775
      8773      8771      8774      8776      8773      8771      8774      8782
      8774      8776      8777      8778      8774      8776      8777      8779
      8774      8782      8785      8786      8775      8774      8776      8777
      8775      8774      8782      8783      8775      8774      8782      8784
      8775      8774      8782      8785      8776      8774      8782      8783
      8776      8774      8782      8784      8776      8774      8782      8785
      8776      8777      8779      8780      8776      8777      8779      8781
      8776      8777      8779      8791      8777      8776      8774      8782
      8777      8779      8791      8792      8777      8779      8791      8793
      8777      8779      8791      8794      8778      8777      8779      8780
      8778      8777      8779      8781      8778      8777      8779      8791
      8779      8791      8794      8795      8779      8791      8794      8796
      8779      8791      8794      8797      8780      8779      8791      8792
      8780      8779      8791      8793      8780      8779      8791      8794
      8781      8779      8791      8792      8781      8779      8791      8793
      8781      8779      8791      8794      8782      8785      8786      8787
      8782      8785      8786      8788      8783      8782      8785      8786
      8784      8782      8785      8786      8785      8786      8788      8789
      8785      8786      8788      8790      8785      8786      8788      8838
      8786      8788      8838      8839      8786      8788      8838      8840
      8786      8788      8838      8841      8787      8786      8788      8789
      8787      8786      8788      8790      8787      8786      8788      8838
      8788      8838      8841      8842      8788      8838      8841      8843
      8788      8838      8841      8844      8789      8788      8838      8839
      8789      8788      8838      8840      8789      8788      8838      8841
      8790      8788      8838      8839      8790      8788      8838      8840
      8790      8788      8838      8841      8791      8794      8797      8798
      8791      8794      8797      8799      8791      8794      8797      8800
      8792      8791      8794      8795      8792      8791      8794      8796
      8792      8791      8794      8797      8793      8791      8794      8795
      8793      8791      8794      8796      8793      8791      8794      8797
      8794      8797      8800      8801      8794      8797      8800      8802
      8794      8797      8800      8803      8795      8794      8797      8798
      8795      8794      8797      8799      8795      8794      8797      8800
      8796      8794      8797      8798      8796      8794      8797      8799
      8796      8794      8797      8800      8797      8800      8803      8804
      8797      8800      8803      8805      8797      8800      8803      8806
      8798      8797      8800      8801      8798      8797      8800      8802
      8798      8797      8800      8803      8799      8797      8800      8801
      8799      8797      8800      8802      8799      8797      8800      8803
      8800      8803      8806      8807      8800      8803      8806      8808
      8800      8803      8806      8809      8801      8800      8803      8804
      8801      8800      8803      8805      8801      8800      8803      8806
      8802      8800      8803      8804      8802      8800      8803      8805
      8802      8800      8803      8806      8803      8806      8809      8810
      8803      8806      8809      8811      8804      8803      8806      8807
      8804      8803      8806      8808      8804      8803      8806      8809
      8805      8803      8806      8807      8805      8803      8806      8808
      8805      8803      8806      8809      8806      8809      8811      8812
      8806      8809      8811      8813      8807      8806      8809      8810
      8807      8806      8809      8811      8808      8806      8809      8810
      8808      8806      8809      8811      8809      8811      8813      8814
      8809      8811      8813      8815      8809      8811      8813      8816
      8810      8809      8811      8812      8810      8809      8811      8813
      8811      8813      8816      8817      8811      8813      8816      8818
      8811      8813      8816      8819      8812      8811      8813      8814
      8812      8811      8813      8815      8812      8811      8813      8816
      8813      8816      8819      8820      8813      8816      8819      8821
      8813      8816      8819      8822      8814      8813      8816      8817
      8814      8813      8816      8818      8814      8813      8816      8819
      8815      8813      8816      8817      8815      8813      8816      8818
      8815      8813      8816      8819      8816      8819      8822      8823
      8816      8819      8822      8824      8816      8819      8822      8825
      8817      8816      8819      8820      8817      8816      8819      8821
      8817      8816      8819      8822      8818      8816      8819      8820
      8818      8816      8819      8821      8818      8816      8819      8822
      8819      8822      8825      8826      8819      8822      8825      8827
      8819      8822      8825      8828      8820      8819      8822      8823
      8820      8819      8822      8824      8820      8819      8822      8825
      8821      8819      8822      8823      8821      8819      8822      8824
      8821      8819      8822      8825      8822      8825      8828      8829
      8822      8825      8828      8830      8822      8825      8828      8831
      8823      8822      8825      8826      8823      8822      8825      8827
      8823      8822      8825      8828      8824      8822      8825      8826
      8824      8822      8825      8827      8824      8822      8825      8828
      8825      8828      8831      8832      8825      8828      8831      8833
      8825      8828      8831      8834      8826      8825      8828      8829
      8826      8825      8828      8830      8826      8825      8828      8831
      8827      8825      8828      8829      8827      8825      8828      8830
      8827      8825      8828      8831      8828      8831      8834      8835
      8828      8831      8834      8836      8828      8831      8834      8837
      8829      8828      8831      8832      8829      8828      8831      8833
      8829      8828      8831      8834      8830      8828      8831      8832
      8830      8828      8831      8833      8830      8828      8831      8834
      8832      8831      8834      8835      8832      8831      8834      8836
      8832      8831      8834      8837      8833      8831      8834      8835
      8833      8831      8834      8836      8833      8831      8834      8837
      8838      8841      8844      8845      8838      8841      8844      8846
      8838      8841      8844      8847      8839      8838      8841      8842
      8839      8838      8841      8843      8839      8838      8841      8844
      8840      8838      8841      8842      8840      8838      8841      8843
      8840      8838      8841      8844      8841      8844      8847      8848
      8841      8844      8847      8849      8841      8844      8847      8850
      8842      8841      8844      8845      8842      8841      8844      8846
      8842      8841      8844      8847      8843      8841      8844      8845
      8843      8841      8844      8846      8843      8841      8844      8847
      8844      8847      8850      8851      8844      8847      8850      8852
      8844      8847      8850      8853      8845      8844      8847      8848
      8845      8844      8847      8849      8845      8844      8847      8850
      8846      8844      8847      8848      8846      8844      8847      8849
      8846      8844      8847      8850      8847      8850      8853      8854
      8847      8850      8853      8855      8847      8850      8853      8856
      8848      8847      8850      8851      8848      8847      8850      8852
      8848      8847      8850      8853      8849      8847      8850      8851
      8849      8847      8850      8852      8849      8847      8850      8853
      8850      8853      8856      8857      8850      8853      8856      8858
      8850      8853      8856      8859      8851      8850      8853      8854
      8851      8850      8853      8855      8851      8850      8853      8856
      8852      8850      8853      8854      8852      8850      8853      8855
      8852      8850      8853      8856      8853      8856      8859      8860
      8853      8856      8859      8861      8853      8856      8859      8862
      8854      8853      8856      8857      8854      8853      8856      8858
      8854      8853      8856      8859      8855      8853      8856      8857
      8855      8853      8856      8858      8855      8853      8856      8859
      8856      8859      8862      8863      8856      8859      8862      8864
      8856      8859      8862      8865      8857      8856      8859      8860
      8857      8856      8859      8861      8857      8856      8859      8862
      8858      8856      8859      8860      8858      8856      8859      8861
      8858      8856      8859      8862      8859      8862      8865      8866
      8859      8862      8865      8867      8859      8862      8865      8868
      8860      8859      8862      8863      8860      8859      8862      8864
      8860      8859      8862      8865      8861      8859      8862      8863
      8861      8859      8862      8864      8861      8859      8862      8865
      8862      8865      8868      8869      8862      8865      8868      8870
      8862      8865      8868      8871      8863      8862      8865      8866
      8863      8862      8865      8867      8863      8862      8865      8868
      8864      8862      8865      8866      8864      8862      8865      8867
      8864      8862      8865      8868      8865      8868      8871      8872
      8865      8868      8871      8873      8865      8868      8871      8874
      8866      8865      8868      8869      8866      8865      8868      8870
      8866      8865      8868      8871      8867      8865      8868      8869
      8867      8865      8868      8870      8867      8865      8868      8871
      8868      8871      8874      8875      8868      8871      8874      8876
      8868      8871      8874      8877      8869      8868      8871      8872
      8869      8868      8871      8873      8869      8868      8871      8874
      8870      8868      8871      8872      8870      8868      8871      8873
      8870      8868      8871      8874      8871      8874      8877      8878
      8871      8874      8877      8879      8871      8874      8877      8880
      8872      8871      8874      8875      8872      8871      8874      8876
      8872      8871      8874      8877      8873      8871      8874      8875
      8873      8871      8874      8876      8873      8871      8874      8877
      8875      8874      8877      8878      8875      8874      8877      8879
      8875      8874      8877      8880      8876      8874      8877      8878
      8876      8874      8877      8879      8876      8874      8877      8880
      8881      8882      8897      8898      8881      8882      8897      8899
      8881      8882      8897      8903      8882      8881      8885      8886
      8882      8881      8885      8887      8882      8881      8885      8888
      8882      8881      8889      8890      8882      8881      8889      8891
      8882      8881      8889      8892      8882      8881      8893      8894
      8882      8881      8893      8895      8882      8881      8893      8896
      8882      8897      8903      8900      8883      8882      8881      8885
      8883      8882      8881      8889      8883      8882      8881      8893
      8883      8882      8897      8898      8883      8882      8897      8899
      8883      8882      8897      8903      8884      8882      8881      8885
      8884      8882      8881      8889      8884      8882      8881      8893
      8884      8882      8897      8898      8884      8882      8897      8899
      8884      8882      8897      8903      8885      8881      8882      8897
      8885      8881      8889      8890      8885      8881      8889      8891
      8885      8881      8889      8892      8885      8881      8893      8894
      8885      8881      8893      8895      8885      8881      8893      8896
      8886      8885      8881      8889      8886      8885      8881      8893
      8887      8885      8881      8889      8887      8885      8881      8893
      8888      8885      8881      8889      8888      8885      8881      8893
      8889      8881      8882      8897      8889      8881      8893      8894
      8889      8881      8893      8895      8889      8881      8893      8896
      8890      8889      8881      8893      8891      8889      8881      8893
      8892      8889      8881      8893      8893      8881      8882      8897
      8897      8903      8900      8901      8897      8903      8900      8902
      8897      8903      8900      8904      8898      8897      8903      8900
      8899      8897      8903      8900      8900      8904      8905      8906
      8900      8904      8905      8907      8900      8904      8905      8908
      8901      8900      8904      8905      8902      8900      8904      8905
      8903      8900      8904      8905      8904      8905      8908      8909
      8904      8905      8908      8910      8904      8905      8908      8916
      8905      8908      8910      8911      8905      8908      8916      8917
      8905      8908      8916      8918      8905      8908      8916      8919
      8906      8905      8908      8909      8906      8905      8908      8910
      8906      8905      8908      8916      8907      8905      8908      8909
      8907      8905      8908      8910      8907      8905      8908      8916
      8908      8910      8911      8912      8908      8910      8911      8913
      8908      8916      8919      8920      8909      8908      8910      8911
      8909      8908      8916      8917      8909      8908      8916      8918
      8909      8908      8916      8919      8910      8908      8916      8917
      8910      8908      8916      8918      8910      8908      8916      8919
      8910      8911      8913      8914      8910      8911      8913      8915
      8910      8911      8913      8925      8911      8910      8908      8916
      8911      8913      8925      8926      8911      8913      8925      8927
      8911      8913      8925      8928      8912      8911      8913      8914
      8912      8911      8913      8915      8912      8911      8913      8925
      8913      8925      8928      8929      8913      8925      8928      8930
      8913      8925      8928      8931      8914      8913      8925      8926
      8914      8913      8925      8927      8914      8913      8925      8928
      8915      8913      8925      8926      8915      8913      8925      8927
      8915      8913      8925      8928      8916      8919      8920      8921
      8916      8919      8920      8922      8917      8916      8919      8920
      8918      8916      8919      8920      8919      8920      8922      8923
      8919      8920      8922      8924      8919      8920      8922      8972
      8920      8922      8972      8973      8920      8922      8972      8974
      8920      8922      8972      8975      8921      8920      8922      8923
      8921      8920      8922      8924      8921      8920      8922      8972
      8922      8972      8975      8976      8922      8972      8975      8977
      8922      8972      8975      8978      8923      8922      8972      8973
      8923      8922      8972      8974      8923      8922      8972      8975
      8924      8922      8972      8973      8924      8922      8972      8974
      8924      8922      8972      8975      8925      8928      8931      8932
      8925      8928      8931      8933      8925      8928      8931      8934
      8926      8925      8928      8929      8926      8925      8928      8930
      8926      8925      8928      8931      8927      8925      8928      8929
      8927      8925      8928      8930      8927      8925      8928      8931
      8928      8931      8934      8935      8928      8931      8934      8936
      8928      8931      8934      8937      8929      8928      8931      8932
      8929      8928      8931      8933      8929      8928      8931      8934
      8930      8928      8931      8932      8930      8928      8931      8933
      8930      8928      8931      8934      8931      8934      8937      8938
      8931      8934      8937      8939      8931      8934      8937      8940
      8932      8931      8934      8935      8932      8931      8934      8936
      8932      8931      8934      8937      8933      8931      8934      8935
      8933      8931      8934      8936      8933      8931      8934      8937
      8934      8937      8940      8941      8934      8937      8940      8942
      8934      8937      8940      8943      8935      8934      8937      8938
      8935      8934      8937      8939      8935      8934      8937      8940
      8936      8934      8937      8938      8936      8934      8937      8939
      8936      8934      8937      8940      8937      8940      8943      8944
      8937      8940      8943      8945      8938      8937      8940      8941
      8938      8937      8940      8942      8938      8937      8940      8943
      8939      8937      8940      8941      8939      8937      8940      8942
      8939      8937      8940      8943      8940      8943      8945      8946
      8940      8943      8945      8947      8941      8940      8943      8944
      8941      8940      8943      8945      8942      8940      8943      8944
      8942      8940      8943      8945      8943      8945      8947      8948
      8943      8945      8947      8949      8943      8945      8947      8950
      8944      8943      8945      8946      8944      8943      8945      8947
      8945      8947      8950      8951      8945      8947      8950      8952
      8945      8947      8950      8953      8946      8945      8947      8948
      8946      8945      8947      8949      8946      8945      8947      8950
      8947      8950      8953      8954      8947      8950      8953      8955
      8947      8950      8953      8956      8948      8947      8950      8951
      8948      8947      8950      8952      8948      8947      8950      8953
      8949      8947      8950      8951      8949      8947      8950      8952
      8949      8947      8950      8953      8950      8953      8956      8957
      8950      8953      8956      8958      8950      8953      8956      8959
      8951      8950      8953      8954      8951      8950      8953      8955
      8951      8950      8953      8956      8952      8950      8953      8954
      8952      8950      8953      8955      8952      8950      8953      8956
      8953      8956      8959      8960      8953      8956      8959      8961
      8953      8956      8959      8962      8954      8953      8956      8957
      8954      8953      8956      8958      8954      8953      8956      8959
      8955      8953      8956      8957      8955      8953      8956      8958
      8955      8953      8956      8959      8956      8959      8962      8963
      8956      8959      8962      8964      8956      8959      8962      8965
      8957      8956      8959      8960      8957      8956      8959      8961
      8957      8956      8959      8962      8958      8956      8959      8960
      8958      8956      8959      8961      8958      8956      8959      8962
      8959      8962      8965      8966      8959      8962      8965      8967
      8959      8962      8965      8968      8960      8959      8962      8963
      8960      8959      8962      8964      8960      8959      8962      8965
      8961      8959      8962      8963      8961      8959      8962      8964
      8961      8959      8962      8965      8962      8965      8968      8969
      8962      8965      8968      8970      8962      8965      8968      8971
      8963      8962      8965      8966      8963      8962      8965      8967
      8963      8962      8965      8968      8964      8962      8965      8966
      8964      8962      8965      8967      8964      8962      8965      8968
      8966      8965      8968      8969      8966      8965      8968      8970
      8966      8965      8968      8971      8967      8965      8968      8969
      8967      8965      8968      8970      8967      8965      8968      8971
      8972      8975      8978      8979      8972      8975      8978      8980
      8972      8975      8978      8981      8973      8972      8975      8976
      8973      8972      8975      8977      8973      8972      8975      8978
      8974      8972      8975      8976      8974      8972      8975      8977
      8974      8972      8975      8978      8975      8978      8981      8982
      8975      8978      8981      8983      8975      8978      8981      8984
      8976      8975      8978      8979      8976      8975      8978      8980
      8976      8975      8978      8981      8977      8975      8978      8979
      8977      8975      8978      8980      8977      8975      8978      8981
      8978      8981      8984      8985      8978      8981      8984      8986
      8978      8981      8984      8987      8979      8978      8981      8982
      8979      8978      8981      8983      8979      8978      8981      8984
      8980      8978      8981      8982      8980      8978      8981      8983
      8980      8978      8981      8984      8981      8984      8987      8988
      8981      8984      8987      8989      8981      8984      8987      8990
      8982      8981      8984      8985      8982      8981      8984      8986
      8982      8981      8984      8987      8983      8981      8984      8985
      8983      8981      8984      8986      8983      8981      8984      8987
      8984      8987      8990      8991      8984      8987      8990      8992
      8984      8987      8990      8993      8985      8984      8987      8988
      8985      8984      8987      8989      8985      8984      8987      8990
      8986      8984      8987      8988      8986      8984      8987      8989
      8986      8984      8987      8990      8987      8990      8993      8994
      8987      8990      8993      8995      8987      8990      8993      8996
      8988      8987      8990      8991      8988      8987      8990      8992
      8988      8987      8990      8993      8989      8987      8990      8991
      8989      8987      8990      8992      8989      8987      8990      8993
      8990      8993      8996      8997      8990      8993      8996      8998
      8990      8993      8996      8999      8991      8990      8993      8994
      8991      8990      8993      8995      8991      8990      8993      8996
      8992      8990      8993      8994      8992      8990      8993      8995
      8992      8990      8993      8996      8993      8996      8999      9000
      8993      8996      8999      9001      8993      8996      8999      9002
      8994      8993      8996      8997      8994      8993      8996      8998
      8994      8993      8996      8999      8995      8993      8996      8997
      8995      8993      8996      8998      8995      8993      8996      8999
      8996      8999      9002      9003      8996      8999      9002      9004
      8996      8999      9002      9005      8997      8996      8999      9000
      8997      8996      8999      9001      8997      8996      8999      9002
      8998      8996      8999      9000      8998      8996      8999      9001
      8998      8996      8999      9002      8999      9002      9005      9006
      8999      9002      9005      9007      8999      9002      9005      9008
      9000      8999      9002      9003      9000      8999      9002      9004
      9000      8999      9002      9005      9001      8999      9002      9003
      9001      8999      9002      9004      9001      8999      9002      9005
      9002      9005      9008      9009      9002      9005      9008      9010
      9002      9005      9008      9011      9003      9002      9005      9006
      9003      9002      9005      9007      9003      9002      9005      9008
      9004      9002      9005      9006      9004      9002      9005      9007
      9004      9002      9005      9008      9005      9008      9011      9012
      9005      9008      9011      9013      9005      9008      9011      9014
      9006      9005      9008      9009      9006      9005      9008      9010
      9006      9005      9008      9011      9007      9005      9008      9009
      9007      9005      9008      9010      9007      9005      9008      9011
      9009      9008      9011      9012      9009      9008      9011      9013
      9009      9008      9011      9014      9010      9008      9011      9012
      9010      9008      9011      9013      9010      9008      9011      9014
      9015      9016      9031      9032      9015      9016      9031      9033
      9015      9016      9031      9037      9016      9015      9019      9020
      9016      9015      9019      9021      9016      9015      9019      9022
      9016      9015      9023      9024      9016      9015      9023      9025
      9016      9015      9023      9026      9016      9015      9027      9028
      9016      9015      9027      9029      9016      9015      9027      9030
      9016      9031      9037      9034      9017      9016      9015      9019
      9017      9016      9015      9023      9017      9016      9015      9027
      9017      9016      9031      9032      9017      9016      9031      9033
      9017      9016      9031      9037      9018      9016      9015      9019
      9018      9016      9015      9023      9018      9016      9015      9027
      9018      9016      9031      9032      9018      9016      9031      9033
      9018      9016      9031      9037      9019      9015      9016      9031
      9019      9015      9023      9024      9019      9015      9023      9025
      9019      9015      9023      9026      9019      9015      9027      9028
      9019      9015      9027      9029      9019      9015      9027      9030
      9020      9019      9015      9023      9020      9019      9015      9027
      9021      9019      9015      9023      9021      9019      9015      9027
      9022      9019      9015      9023      9022      9019      9015      9027
      9023      9015      9016      9031      9023      9015      9027      9028
      9023      9015      9027      9029      9023      9015      9027      9030
      9024      9023      9015      9027      9025      9023      9015      9027
      9026      9023      9015      9027      9027      9015      9016      9031
      9031      9037      9034      9035      9031      9037      9034      9036
      9031      9037      9034      9038      9032      9031      9037      9034
      9033      9031      9037      9034      9034      9038      9039      9040
      9034      9038      9039      9041      9034      9038      9039      9042
      9035      9034      9038      9039      9036      9034      9038      9039
      9037      9034      9038      9039      9038      9039      9042      9043
      9038      9039      9042      9044      9038      9039      9042      9050
      9039      9042      9044      9045      9039      9042      9050      9051
      9039      9042      9050      9052      9039      9042      9050      9053
      9040      9039      9042      9043      9040      9039      9042      9044
      9040      9039      9042      9050      9041      9039      9042      9043
      9041      9039      9042      9044      9041      9039      9042      9050
      9042      9044      9045      9046      9042      9044      9045      9047
      9042      9050      9053      9054      9043      9042      9044      9045
      9043      9042      9050      9051      9043      9042      9050      9052
      9043      9042      9050      9053      9044      9042      9050      9051
      9044      9042      9050      9052      9044      9042      9050      9053
      9044      9045      9047      9048      9044      9045      9047      9049
      9044      9045      9047      9059      9045      9044      9042      9050
      9045      9047      9059      9060      9045      9047      9059      9061
      9045      9047      9059      9062      9046      9045      9047      9048
      9046      9045      9047      9049      9046      9045      9047      9059
      9047      9059      9062      9063      9047      9059      9062      9064
      9047      9059      9062      9065      9048      9047      9059      9060
      9048      9047      9059      9061      9048      9047      9059      9062
      9049      9047      9059      9060      9049      9047      9059      9061
      9049      9047      9059      9062      9050      9053      9054      9055
      9050      9053      9054      9056      9051      9050      9053      9054
      9052      9050      9053      9054      9053      9054      9056      9057
      9053      9054      9056      9058      9053      9054      9056      9106
      9054      9056      9106      9107      9054      9056      9106      9108
      9054      9056      9106      9109      9055      9054      9056      9057
      9055      9054      9056      9058      9055      9054      9056      9106
      9056      9106      9109      9110      9056      9106      9109      9111
      9056      9106      9109      9112      9057      9056      9106      9107
      9057      9056      9106      9108      9057      9056      9106      9109
      9058      9056      9106      9107      9058      9056      9106      9108
      9058      9056      9106      9109      9059      9062      9065      9066
      9059      9062      9065      9067      9059      9062      9065      9068
      9060      9059      9062      9063      9060      9059      9062      9064
      9060      9059      9062      9065      9061      9059      9062      9063
      9061      9059      9062      9064      9061      9059      9062      9065
      9062      9065      9068      9069      9062      9065      9068      9070
      9062      9065      9068      9071      9063      9062      9065      9066
      9063      9062      9065      9067      9063      9062      9065      9068
      9064      9062      9065      9066      9064      9062      9065      9067
      9064      9062      9065      9068      9065      9068      9071      9072
      9065      9068      9071      9073      9065      9068      9071      9074
      9066      9065      9068      9069      9066      9065      9068      9070
      9066      9065      9068      9071      9067      9065      9068      9069
      9067      9065      9068      9070      9067      9065      9068      9071
      9068      9071      9074      9075      9068      9071      9074      9076
      9068      9071      9074      9077      9069      9068      9071      9072
      9069      9068      9071      9073      9069      9068      9071      9074
      9070      9068      9071      9072      9070      9068      9071      9073
      9070      9068      9071      9074      9071      9074      9077      9078
      9071      9074      9077      9079      9072      9071      9074      9075
      9072      9071      9074      9076      9072      9071      9074      9077
      9073      9071      9074      9075      9073      9071      9074      9076
      9073      9071      9074      9077      9074      9077      9079      9080
      9074      9077      9079      9081      9075      9074      9077      9078
      9075      9074      9077      9079      9076      9074      9077      9078
      9076      9074      9077      9079      9077      9079      9081      9082
      9077      9079      9081      9083      9077      9079      9081      9084
      9078      9077      9079      9080      9078      9077      9079      9081
      9079      9081      9084      9085      9079      9081      9084      9086
      9079      9081      9084      9087      9080      9079      9081      9082
      9080      9079      9081      9083      9080      9079      9081      9084
      9081      9084      9087      9088      9081      9084      9087      9089
      9081      9084      9087      9090      9082      9081      9084      9085
      9082      9081      9084      9086      9082      9081      9084      9087
      9083      9081      9084      9085      9083      9081      9084      9086
      9083      9081      9084      9087      9084      9087      9090      9091
      9084      9087      9090      9092      9084      9087      9090      9093
      9085      9084      9087      9088      9085      9084      9087      9089
      9085      9084      9087      9090      9086      9084      9087      9088
      9086      9084      9087      9089      9086      9084      9087      9090
      9087      9090      9093      9094      9087      9090      9093      9095
      9087      9090      9093      9096      9088      9087      9090      9091
      9088      9087      9090      9092      9088      9087      9090      9093
      9089      9087      9090      9091      9089      9087      9090      9092
      9089      9087      9090      9093      9090      9093      9096      9097
      9090      9093      9096      9098      9090      9093      9096      9099
      9091      9090      9093      9094      9091      9090      9093      9095
      9091      9090      9093      9096      9092      9090      9093      9094
      9092      9090      9093      9095      9092      9090      9093      9096
      9093      9096      9099      9100      9093      9096      9099      9101
      9093      9096      9099      9102      9094      9093      9096      9097
      9094      9093      9096      9098      9094      9093      9096      9099
      9095      9093      9096      9097      9095      9093      9096      9098
      9095      9093      9096      9099      9096      9099      9102      9103
      9096      9099      9102      9104      9096      9099      9102      9105
      9097      9096      9099      9100      9097      9096      9099      9101
      9097      9096      9099      9102      9098      9096      9099      9100
      9098      9096      9099      9101      9098      9096      9099      9102
      9100      9099      9102      9103      9100      9099      9102      9104
      9100      9099      9102      9105      9101      9099      9102      9103
      9101      9099      9102      9104      9101      9099      9102      9105
      9106      9109      9112      9113      9106      9109      9112      9114
      9106      9109      9112      9115      9107      9106      9109      9110
      9107      9106      9109      9111      9107      9106      9109      9112
      9108      9106      9109      9110      9108      9106      9109      9111
      9108      9106      9109      9112      9109      9112      9115      9116
      9109      9112      9115      9117      9109      9112      9115      9118
      9110      9109      9112      9113      9110      9109      9112      9114
      9110      9109      9112      9115      9111      9109      9112      9113
      9111      9109      9112      9114      9111      9109      9112      9115
      9112      9115      9118      9119      9112      9115      9118      9120
      9112      9115      9118      9121      9113      9112      9115      9116
      9113      9112      9115      9117      9113      9112      9115      9118
      9114      9112      9115      9116      9114      9112      9115      9117
      9114      9112      9115      9118      9115      9118      9121      9122
      9115      9118      9121      9123      9115      9118      9121      9124
      9116      9115      9118      9119      9116      9115      9118      9120
      9116      9115      9118      9121      9117      9115      9118      9119
      9117      9115      9118      9120      9117      9115      9118      9121
      9118      9121      9124      9125      9118      9121      9124      9126
      9118      9121      9124      9127      9119      9118      9121      9122
      9119      9118      9121      9123      9119      9118      9121      9124
      9120      9118      9121      9122      9120      9118      9121      9123
      9120      9118      9121      9124      9121      9124      9127      9128
      9121      9124      9127      9129      9121      9124      9127      9130
      9122      9121      9124      9125      9122      9121      9124      9126
      9122      9121      9124      9127      9123      9121      9124      9125
      9123      9121      9124      9126      9123      9121      9124      9127
      9124      9127      9130      9131      9124      9127      9130      9132
      9124      9127      9130      9133      9125      9124      9127      9128
      9125      9124      9127      9129      9125      9124      9127      9130
      9126      9124      9127      9128      9126      9124      9127      9129
      9126      9124      9127      9130      9127      9130      9133      9134
      9127      9130      9133      9135      9127      9130      9133      9136
      9128      9127      9130      9131      9128      9127      9130      9132
      9128      9127      9130      9133      9129      9127      9130      9131
      9129      9127      9130      9132      9129      9127      9130      9133
      9130      9133      9136      9137      9130      9133      9136      9138
      9130      9133      9136      9139      9131      9130      9133      9134
      9131      9130      9133      9135      9131      9130      9133      9136
      9132      9130      9133      9134      9132      9130      9133      9135
      9132      9130      9133      9136      9133      9136      9139      9140
      9133      9136      9139      9141      9133      9136      9139      9142
      9134      9133      9136      9137      9134      9133      9136      9138
      9134      9133      9136      9139      9135      9133      9136      9137
      9135      9133      9136      9138      9135      9133      9136      9139
      9136      9139      9142      9143      9136      9139      9142      9144
      9136      9139      9142      9145      9137      9136      9139      9140
      9137      9136      9139      9141      9137      9136      9139      9142
      9138      9136      9139      9140      9138      9136      9139      9141
      9138      9136      9139      9142      9139      9142      9145      9146
      9139      9142      9145      9147      9139      9142      9145      9148
      9140      9139      9142      9143      9140      9139      9142      9144
      9140      9139      9142      9145      9141      9139      9142      9143
      9141      9139      9142      9144      9141      9139      9142      9145
      9143      9142      9145      9146      9143      9142      9145      9147
      9143      9142      9145      9148      9144      9142      9145      9146
      9144      9142      9145      9147      9144      9142      9145      9148
      9149      9150      9165      9166      9149      9150      9165      9167
      9149      9150      9165      9171      9150      9149      9153      9154
      9150      9149      9153      9155      9150      9149      9153      9156
      9150      9149      9157      9158      9150      9149      9157      9159
      9150      9149      9157      9160      9150      9149      9161      9162
      9150      9149      9161      9163      9150      9149      9161      9164
      9150      9165      9171      9168      9151      9150      9149      9153
      9151      9150      9149      9157      9151      9150      9149      9161
      9151      9150      9165      9166      9151      9150      9165      9167
      9151      9150      9165      9171      9152      9150      9149      9153
      9152      9150      9149      9157      9152      9150      9149      9161
      9152      9150      9165      9166      9152      9150      9165      9167
      9152      9150      9165      9171      9153      9149      9150      9165
      9153      9149      9157      9158      9153      9149      9157      9159
      9153      9149      9157      9160      9153      9149      9161      9162
      9153      9149      9161      9163      9153      9149      9161      9164
      9154      9153      9149      9157      9154      9153      9149      9161
      9155      9153      9149      9157      9155      9153      9149      9161
      9156      9153      9149      9157      9156      9153      9149      9161
      9157      9149      9150      9165      9157      9149      9161      9162
      9157      9149      9161      9163      9157      9149      9161      9164
      9158      9157      9149      9161      9159      9157      9149      9161
      9160      9157      9149      9161      9161      9149      9150      9165
      9165      9171      9168      9169      9165      9171      9168      9170
      9165      9171      9168      9172      9166      9165      9171      9168
      9167      9165      9171      9168      9168      9172      9173      9174
      9168      9172      9173      9175      9168      9172      9173      9176
      9169      9168      9172      9173      9170      9168      9172      9173
      9171      9168      9172      9173      9172      9173      9176      9177
      9172      9173      9176      9178      9172      9173      9176      9184
      9173      9176      9178      9179      9173      9176      9184      9185
      9173      9176      9184      9186      9173      9176      9184      9187
      9174      9173      9176      9177      9174      9173      9176      9178
      9174      9173      9176      9184      9175      9173      9176      9177
      9175      9173      9176      9178      9175      9173      9176      9184
      9176      9178      9179      9180      9176      9178      9179      9181
      9176      9184      9187      9188      9177      9176      9178      9179
      9177      9176      9184      9185      9177      9176      9184      9186
      9177      9176      9184      9187      9178      9176      9184      9185
      9178      9176      9184      9186      9178      9176      9184      9187
      9178      9179      9181      9182      9178      9179      9181      9183
      9178      9179      9181      9193      9179      9178      9176      9184
      9179      9181      9193      9194      9179      9181      9193      9195
      9179      9181      9193      9196      9180      9179      9181      9182
      9180      9179      9181      9183      9180      9179      9181      9193
      9181      9193      9196      9197      9181      9193      9196      9198
      9181      9193      9196      9199      9182      9181      9193      9194
      9182      9181      9193      9195      9182      9181      9193      9196
      9183      9181      9193      9194      9183      9181      9193      9195
      9183      9181      9193      9196      9184      9187      9188      9189
      9184      9187      9188      9190      9185      9184      9187      9188
      9186      9184      9187      9188      9187      9188      9190      9191
      9187      9188      9190      9192      9187      9188      9190      9240
      9188      9190      9240      9241      9188      9190      9240      9242
      9188      9190      9240      9243      9189      9188      9190      9191
      9189      9188      9190      9192      9189      9188      9190      9240
      9190      9240      9243      9244      9190      9240      9243      9245
      9190      9240      9243      9246      9191      9190      9240      9241
      9191      9190      9240      9242      9191      9190      9240      9243
      9192      9190      9240      9241      9192      9190      9240      9242
      9192      9190      9240      9243      9193      9196      9199      9200
      9193      9196      9199      9201      9193      9196      9199      9202
      9194      9193      9196      9197      9194      9193      9196      9198
      9194      9193      9196      9199      9195      9193      9196      9197
      9195      9193      9196      9198      9195      9193      9196      9199
      9196      9199      9202      9203      9196      9199      9202      9204
      9196      9199      9202      9205      9197      9196      9199      9200
      9197      9196      9199      9201      9197      9196      9199      9202
      9198      9196      9199      9200      9198      9196      9199      9201
      9198      9196      9199      9202      9199      9202      9205      9206
      9199      9202      9205      9207      9199      9202      9205      9208
      9200      9199      9202      9203      9200      9199      9202      9204
      9200      9199      9202      9205      9201      9199      9202      9203
      9201      9199      9202      9204      9201      9199      9202      9205
      9202      9205      9208      9209      9202      9205      9208      9210
      9202      9205      9208      9211      9203      9202      9205      9206
      9203      9202      9205      9207      9203      9202      9205      9208
      9204      9202      9205      9206      9204      9202      9205      9207
      9204      9202      9205      9208      9205      9208      9211      9212
      9205      9208      9211      9213      9206      9205      9208      9209
      9206      9205      9208      9210      9206      9205      9208      9211
      9207      9205      9208      9209      9207      9205      9208      9210
      9207      9205      9208      9211      9208      9211      9213      9214
      9208      9211      9213      9215      9209      9208      9211      9212
      9209      9208      9211      9213      9210      9208      9211      9212
      9210      9208      9211      9213      9211      9213      9215      9216
      9211      9213      9215      9217      9211      9213      9215      9218
      9212      9211      9213      9214      9212      9211      9213      9215
      9213      9215      9218      9219      9213      9215      9218      9220
      9213      9215      9218      9221      9214      9213      9215      9216
      9214      9213      9215      9217      9214      9213      9215      9218
      9215      9218      9221      9222      9215      9218      9221      9223
      9215      9218      9221      9224      9216      9215      9218      9219
      9216      9215      9218      9220      9216      9215      9218      9221
      9217      9215      9218      9219      9217      9215      9218      9220
      9217      9215      9218      9221      9218      9221      9224      9225
      9218      9221      9224      9226      9218      9221      9224      9227
      9219      9218      9221      9222      9219      9218      9221      9223
      9219      9218      9221      9224      9220      9218      9221      9222
      9220      9218      9221      9223      9220      9218      9221      9224
      9221      9224      9227      9228      9221      9224      9227      9229
      9221      9224      9227      9230      9222      9221      9224      9225
      9222      9221      9224      9226      9222      9221      9224      9227
      9223      9221      9224      9225      9223      9221      9224      9226
      9223      9221      9224      9227      9224      9227      9230      9231
      9224      9227      9230      9232      9224      9227      9230      9233
      9225      9224      9227      9228      9225      9224      9227      9229
      9225      9224      9227      9230      9226      9224      9227      9228
      9226      9224      9227      9229      9226      9224      9227      9230
      9227      9230      9233      9234      9227      9230      9233      9235
      9227      9230      9233      9236      9228      9227      9230      9231
      9228      9227      9230      9232      9228      9227      9230      9233
      9229      9227      9230      9231      9229      9227      9230      9232
      9229      9227      9230      9233      9230      9233      9236      9237
      9230      9233      9236      9238      9230      9233      9236      9239
      9231      9230      9233      9234      9231      9230      9233      9235
      9231      9230      9233      9236      9232      9230      9233      9234
      9232      9230      9233      9235      9232      9230      9233      9236
      9234      9233      9236      9237      9234      9233      9236      9238
      9234      9233      9236      9239      9235      9233      9236      9237
      9235      9233      9236      9238      9235      9233      9236      9239
      9240      9243      9246      9247      9240      9243      9246      9248
      9240      9243      9246      9249      9241      9240      9243      9244
      9241      9240      9243      9245      9241      9240      9243      9246
      9242      9240      9243      9244      9242      9240      9243      9245
      9242      9240      9243      9246      9243      9246      9249      9250
      9243      9246      9249      9251      9243      9246      9249      9252
      9244      9243      9246      9247      9244      9243      9246      9248
      9244      9243      9246      9249      9245      9243      9246      9247
      9245      9243      9246      9248      9245      9243      9246      9249
      9246      9249      9252      9253      9246      9249      9252      9254
      9246      9249      9252      9255      9247      9246      9249      9250
      9247      9246      9249      9251      9247      9246      9249      9252
      9248      9246      9249      9250      9248      9246      9249      9251
      9248      9246      9249      9252      9249      9252      9255      9256
      9249      9252      9255      9257      9249      9252      9255      9258
      9250      9249      9252      9253      9250      9249      9252      9254
      9250      9249      9252      9255      9251      9249      9252      9253
      9251      9249      9252      9254      9251      9249      9252      9255
      9252      9255      9258      9259      9252      9255      9258      9260
      9252      9255      9258      9261      9253      9252      9255      9256
      9253      9252      9255      9257      9253      9252      9255      9258
      9254      9252      9255      9256      9254      9252      9255      9257
      9254      9252      9255      9258      9255      9258      9261      9262
      9255      9258      9261      9263      9255      9258      9261      9264
      9256      9255      9258      9259      9256      9255      9258      9260
      9256      9255      9258      9261      9257      9255      9258      9259
      9257      9255      9258      9260      9257      9255      9258      9261
      9258      9261      9264      9265      9258      9261      9264      9266
      9258      9261      9264      9267      9259      9258      9261      9262
      9259      9258      9261      9263      9259      9258      9261      9264
      9260      9258      9261      9262      9260      9258      9261      9263
      9260      9258      9261      9264      9261      9264      9267      9268
      9261      9264      9267      9269      9261      9264      9267      9270
      9262      9261      9264      9265      9262      9261      9264      9266
      9262      9261      9264      9267      9263      9261      9264      9265
      9263      9261      9264      9266      9263      9261      9264      9267
      9264      9267      9270      9271      9264      9267      9270      9272
      9264      9267      9270      9273      9265      9264      9267      9268
      9265      9264      9267      9269      9265      9264      9267      9270
      9266      9264      9267      9268      9266      9264      9267      9269
      9266      9264      9267      9270      9267      9270      9273      9274
      9267      9270      9273      9275      9267      9270      9273      9276
      9268      9267      9270      9271      9268      9267      9270      9272
      9268      9267      9270      9273      9269      9267      9270      9271
      9269      9267      9270      9272      9269      9267      9270      9273
      9270      9273      9276      9277      9270      9273      9276      9278
      9270      9273      9276      9279      9271      9270      9273      9274
      9271      9270      9273      9275      9271      9270      9273      9276
      9272      9270      9273      9274      9272      9270      9273      9275
      9272      9270      9273      9276      9273      9276      9279      9280
      9273      9276      9279      9281      9273      9276      9279      9282
      9274      9273      9276      9277      9274      9273      9276      9278
      9274      9273      9276      9279      9275      9273      9276      9277
      9275      9273      9276      9278      9275      9273      9276      9279
      9277      9276      9279      9280      9277      9276      9279      9281
      9277      9276      9279      9282      9278      9276      9279      9280
      9278      9276      9279      9281      9278      9276      9279      9282
      9283      9284      9299      9300      9283      9284      9299      9301
      9283      9284      9299      9305      9284      9283      9287      9288
      9284      9283      9287      9289      9284      9283      9287      9290
      9284      9283      9291      9292      9284      9283      9291      9293
      9284      9283      9291      9294      9284      9283      9295      9296
      9284      9283      9295      9297      9284      9283      9295      9298
      9284      9299      9305      9302      9285      9284      9283      9287
      9285      9284      9283      9291      9285      9284      9283      9295
      9285      9284      9299      9300      9285      9284      9299      9301
      9285      9284      9299      9305      9286      9284      9283      9287
      9286      9284      9283      9291      9286      9284      9283      9295
      9286      9284      9299      9300      9286      9284      9299      9301
      9286      9284      9299      9305      9287      9283      9284      9299
      9287      9283      9291      9292      9287      9283      9291      9293
      9287      9283      9291      9294      9287      9283      9295      9296
      9287      9283      9295      9297      9287      9283      9295      9298
      9288      9287      9283      9291      9288      9287      9283      9295
      9289      9287      9283      9291      9289      9287      9283      9295
      9290      9287      9283      9291      9290      9287      9283      9295
      9291      9283      9284      9299      9291      9283      9295      9296
      9291      9283      9295      9297      9291      9283      9295      9298
      9292      9291      9283      9295      9293      9291      9283      9295
      9294      9291      9283      9295      9295      9283      9284      9299
      9299      9305      9302      9303      9299      9305      9302      9304
      9299      9305      9302      9306      9300      9299      9305      9302
      9301      9299      9305      9302      9302      9306      9307      9308
      9302      9306      9307      9309      9302      9306      9307      9310
      9303      9302      9306      9307      9304      9302      9306      9307
      9305      9302      9306      9307      9306      9307      9310      9311
      9306      9307      9310      9312      9306      9307      9310      9318
      9307      9310      9312      9313      9307      9310      9318      9319
      9307      9310      9318      9320      9307      9310      9318      9321
      9308      9307      9310      9311      9308      9307      9310      9312
      9308      9307      9310      9318      9309      9307      9310      9311
      9309      9307      9310      9312      9309      9307      9310      9318
      9310      9312      9313      9314      9310      9312      9313      9315
      9310      9318      9321      9322      9311      9310      9312      9313
      9311      9310      9318      9319      9311      9310      9318      9320
      9311      9310      9318      9321      9312      9310      9318      9319
      9312      9310      9318      9320      9312      9310      9318      9321
      9312      9313      9315      9316      9312      9313      9315      9317
      9312      9313      9315      9327      9313      9312      9310      9318
      9313      9315      9327      9328      9313      9315      9327      9329
      9313      9315      9327      9330      9314      9313      9315      9316
      9314      9313      9315      9317      9314      9313      9315      9327
      9315      9327      9330      9331      9315      9327      9330      9332
      9315      9327      9330      9333      9316      9315      9327      9328
      9316      9315      9327      9329      9316      9315      9327      9330
      9317      9315      9327      9328      9317      9315      9327      9329
      9317      9315      9327      9330      9318      9321      9322      9323
      9318      9321      9322      9324      9319      9318      9321      9322
      9320      9318      9321      9322      9321      9322      9324      9325
      9321      9322      9324      9326      9321      9322      9324      9374
      9322      9324      9374      9375      9322      9324      9374      9376
      9322      9324      9374      9377      9323      9322      9324      9325
      9323      9322      9324      9326      9323      9322      9324      9374
      9324      9374      9377      9378      9324      9374      9377      9379
      9324      9374      9377      9380      9325      9324      9374      9375
      9325      9324      9374      9376      9325      9324      9374      9377
      9326      9324      9374      9375      9326      9324      9374      9376
      9326      9324      9374      9377      9327      9330      9333      9334
      9327      9330      9333      9335      9327      9330      9333      9336
      9328      9327      9330      9331      9328      9327      9330      9332
      9328      9327      9330      9333      9329      9327      9330      9331
      9329      9327      9330      9332      9329      9327      9330      9333
      9330      9333      9336      9337      9330      9333      9336      9338
      9330      9333      9336      9339      9331      9330      9333      9334
      9331      9330      9333      9335      9331      9330      9333      9336
      9332      9330      9333      9334      9332      9330      9333      9335
      9332      9330      9333      9336      9333      9336      9339      9340
      9333      9336      9339      9341      9333      9336      9339      9342
      9334      9333      9336      9337      9334      9333      9336      9338
      9334      9333      9336      9339      9335      9333      9336      9337
      9335      9333      9336      9338      9335      9333      9336      9339
      9336      9339      9342      9343      9336      9339      9342      9344
      9336      9339      9342      9345      9337      9336      9339      9340
      9337      9336      9339      9341      9337      9336      9339      9342
      9338      9336      9339      9340      9338      9336      9339      9341
      9338      9336      9339      9342      9339      9342      9345      9346
      9339      9342      9345      9347      9340      9339      9342      9343
      9340      9339      9342      9344      9340      9339      9342      9345
      9341      9339      9342      9343      9341      9339      9342      9344
      9341      9339      9342      9345      9342      9345      9347      9348
      9342      9345      9347      9349      9343      9342      9345      9346
      9343      9342      9345      9347      9344      9342      9345      9346
      9344      9342      9345      9347      9345      9347      9349      9350
      9345      9347      9349      9351      9345      9347      9349      9352
      9346      9345      9347      9348      9346      9345      9347      9349
      9347      9349      9352      9353      9347      9349      9352      9354
      9347      9349      9352      9355      9348      9347      9349      9350
      9348      9347      9349      9351      9348      9347      9349      9352
      9349      9352      9355      9356      9349      9352      9355      9357
      9349      9352      9355      9358      9350      9349      9352      9353
      9350      9349      9352      9354      9350      9349      9352      9355
      9351      9349      9352      9353      9351      9349      9352      9354
      9351      9349      9352      9355      9352      9355      9358      9359
      9352      9355      9358      9360      9352      9355      9358      9361
      9353      9352      9355      9356      9353      9352      9355      9357
      9353      9352      9355      9358      9354      9352      9355      9356
      9354      9352      9355      9357      9354      9352      9355      9358
      9355      9358      9361      9362      9355      9358      9361      9363
      9355      9358      9361      9364      9356      9355      9358      9359
      9356      9355      9358      9360      9356      9355      9358      9361
      9357      9355      9358      9359      9357      9355      9358      9360
      9357      9355      9358      9361      9358      9361      9364      9365
      9358      9361      9364      9366      9358      9361      9364      9367
      9359      9358      9361      9362      9359      9358      9361      9363
      9359      9358      9361      9364      9360      9358      9361      9362
      9360      9358      9361      9363      9360      9358      9361      9364
      9361      9364      9367      9368      9361      9364      9367      9369
      9361      9364      9367      9370      9362      9361      9364      9365
      9362      9361      9364      9366      9362      9361      9364      9367
      9363      9361      9364      9365      9363      9361      9364      9366
      9363      9361      9364      9367      9364      9367      9370      9371
      9364      9367      9370      9372      9364      9367      9370      9373
      9365      9364      9367      9368      9365      9364      9367      9369
      9365      9364      9367      9370      9366      9364      9367      9368
      9366      9364      9367      9369      9366      9364      9367      9370
      9368      9367      9370      9371      9368      9367      9370      9372
      9368      9367      9370      9373      9369      9367      9370      9371
      9369      9367      9370      9372      9369      9367      9370      9373
      9374      9377      9380      9381      9374      9377      9380      9382
      9374      9377      9380      9383      9375      9374      9377      9378
      9375      9374      9377      9379      9375      9374      9377      9380
      9376      9374      9377      9378      9376      9374      9377      9379
      9376      9374      9377      9380      9377      9380      9383      9384
      9377      9380      9383      9385      9377      9380      9383      9386
      9378      9377      9380      9381      9378      9377      9380      9382
      9378      9377      9380      9383      9379      9377      9380      9381
      9379      9377      9380      9382      9379      9377      9380      9383
      9380      9383      9386      9387      9380      9383      9386      9388
      9380      9383      9386      9389      9381      9380      9383      9384
      9381      9380      9383      9385      9381      9380      9383      9386
      9382      9380      9383      9384      9382      9380      9383      9385
      9382      9380      9383      9386      9383      9386      9389      9390
      9383      9386      9389      9391      9383      9386      9389      9392
      9384      9383      9386      9387      9384      9383      9386      9388
      9384      9383      9386      9389      9385      9383      9386      9387
      9385      9383      9386      9388      9385      9383      9386      9389
      9386      9389      9392      9393      9386      9389      9392      9394
      9386      9389      9392      9395      9387      9386      9389      9390
      9387      9386      9389      9391      9387      9386      9389      9392
      9388      9386      9389      9390      9388      9386      9389      9391
      9388      9386      9389      9392      9389      9392      9395      9396
      9389      9392      9395      9397      9389      9392      9395      9398
      9390      9389      9392      9393      9390      9389      9392      9394
      9390      9389      9392      9395      9391      9389      9392      9393
      9391      9389      9392      9394      9391      9389      9392      9395
      9392      9395      9398      9399      9392      9395      9398      9400
      9392      9395      9398      9401      9393      9392      9395      9396
      9393      9392      9395      9397      9393      9392      9395      9398
      9394      9392      9395      9396      9394      9392      9395      9397
      9394      9392      9395      9398      9395      9398      9401      9402
      9395      9398      9401      9403      9395      9398      9401      9404
      9396      9395      9398      9399      9396      9395      9398      9400
      9396      9395      9398      9401      9397      9395      9398      9399
      9397      9395      9398      9400      9397      9395      9398      9401
      9398      9401      9404      9405      9398      9401      9404      9406
      9398      9401      9404      9407      9399      9398      9401      9402
      9399      9398      9401      9403      9399      9398      9401      9404
      9400      9398      9401      9402      9400      9398      9401      9403
      9400      9398      9401      9404      9401      9404      9407      9408
      9401      9404      9407      9409      9401      9404      9407      9410
      9402      9401      9404      9405      9402      9401      9404      9406
      9402      9401      9404      9407      9403      9401      9404      9405
      9403      9401      9404      9406      9403      9401      9404      9407
      9404      9407      9410      9411      9404      9407      9410      9412
      9404      9407      9410      9413      9405      9404      9407      9408
      9405      9404      9407      9409      9405      9404      9407      9410
      9406      9404      9407      9408      9406      9404      9407      9409
      9406      9404      9407      9410      9407      9410      9413      9414
      9407      9410      9413      9415      9407      9410      9413      9416
      9408      9407      9410      9411      9408      9407      9410      9412
      9408      9407      9410      9413      9409      9407      9410      9411
      9409      9407      9410      9412      9409      9407      9410      9413
      9411      9410      9413      9414      9411      9410      9413      9415
      9411      9410      9413      9416      9412      9410      9413      9414
      9412      9410      9413      9415      9412      9410      9413      9416
      9417      9421      9423      9424      9417      9421      9423      9425
      9417      9421      9426      9427      9417      9421      9426      9428
      9417      9421      9426      9432      9418      9417      9421      9422
      9418      9417      9421      9423      9418      9417      9421      9426
      9419      9417      9421      9422      9419      9417      9421      9423
      9419      9417      9421      9426      9420      9417      9421      9422
      9420      9417      9421      9423      9420      9417      9421      9426
      9421      9426      9432      9429      9422      9421      9423      9424
      9422      9421      9423      9425      9422      9421      9426      9427
      9422      9421      9426      9428      9422      9421      9426      9432
      9423      9421      9426      9427      9423      9421      9426      9428
      9423      9421      9426      9432      9424      9423      9421      9426
      9425      9423      9421      9426      9426      9432      9429      9430
      9426      9432      9429      9431      9426      9432      9429      9433
      9427      9426      9432      9429      9428      9426      9432      9429
      9429      9433      9434      9435      9429      9433      9434      9436
      9429      9433      9434      9437      9430      9429      9433      9434
      9431      9429      9433      9434      9432      9429      9433      9434
      9433      9434      9437      9438      9433      9434      9437      9439
      9433      9434      9437      9445      9434      9437      9439      9440
      9434      9437      9445      9446      9434      9437      9445      9447
      9434      9437      9445      9448      9435      9434      9437      9438
      9435      9434      9437      9439      9435      9434      9437      9445
      9436      9434      9437      9438      9436      9434      9437      9439
      9436      9434      9437      9445      9437      9439      9440      9441
      9437      9439      9440      9442      9437      9445      9448      9449
      9438      9437      9439      9440      9438      9437      9445      9446
      9438      9437      9445      9447      9438      9437      9445      9448
      9439      9437      9445      9446      9439      9437      9445      9447
      9439      9437      9445      9448      9439      9440      9442      9443
      9439      9440      9442      9444      9439      9440      9442      9454
      9440      9439      9437      9445      9440      9442      9454      9455
      9440      9442      9454      9456      9440      9442      9454      9457
      9441      9440      9442      9443      9441      9440      9442      9444
      9441      9440      9442      9454      9442      9454      9457      9458
      9442      9454      9457      9459      9442      9454      9457      9460
      9443      9442      9454      9455      9443      9442      9454      9456
      9443      9442      9454      9457      9444      9442      9454      9455
      9444      9442      9454      9456      9444      9442      9454      9457
      9445      9448      9449      9450      9445      9448      9449      9451
      9446      9445      9448      9449      9447      9445      9448      9449
      9448      9449      9451      9452      9448      9449      9451      9453
      9448      9449      9451      9501      9449      9451      9501      9502
      9449      9451      9501      9503      9449      9451      9501      9504
      9450      9449      9451      9452      9450      9449      9451      9453
      9450      9449      9451      9501      9451      9501      9504      9505
      9451      9501      9504      9506      9451      9501      9504      9507
      9452      9451      9501      9502      9452      9451      9501      9503
      9452      9451      9501      9504      9453      9451      9501      9502
      9453      9451      9501      9503      9453      9451      9501      9504
      9454      9457      9460      9461      9454      9457      9460      9462
      9454      9457      9460      9463      9455      9454      9457      9458
      9455      9454      9457      9459      9455      9454      9457      9460
      9456      9454      9457      9458      9456      9454      9457      9459
      9456      9454      9457      9460      9457      9460      9463      9464
      9457      9460      9463      9465      9457      9460      9463      9466
      9458      9457      9460      9461      9458      9457      9460      9462
      9458      9457      9460      9463      9459      9457      9460      9461
      9459      9457      9460      9462      9459      9457      9460      9463
      9460      9463      9466      9467      9460      9463      9466      9468
      9460      9463      9466      9469      9461      9460      9463      9464
      9461      9460      9463      9465      9461      9460      9463      9466
      9462      9460      9463      9464      9462      9460      9463      9465
      9462      9460      9463      9466      9463      9466      9469      9470
      9463      9466      9469      9471      9463      9466      9469      9472
      9464      9463      9466      9467      9464      9463      9466      9468
      9464      9463      9466      9469      9465      9463      9466      9467
      9465      9463      9466      9468      9465      9463      9466      9469
      9466      9469      9472      9473      9466      9469      9472      9474
      9467      9466      9469      9470      9467      9466      9469      9471
      9467      9466      9469      9472      9468      9466      9469      9470
      9468      9466      9469      9471      9468      9466      9469      9472
      9469      9472      9474      9475      9469      9472      9474      9476
      9470      9469      9472      9473      9470      9469      9472      9474
      9471      9469      9472      9473      9471      9469      9472      9474
      9472      9474      9476      9477      9472      9474      9476      9478
      9472      9474      9476      9479      9473      9472      9474      9475
      9473      9472      9474      9476      9474      9476      9479      9480
      9474      9476      9479      9481      9474      9476      9479      9482
      9475      9474      9476      9477      9475      9474      9476      9478
      9475      9474      9476      9479      9476      9479      9482      9483
      9476      9479      9482      9484      9476      9479      9482      9485
      9477      9476      9479      9480      9477      9476      9479      9481
      9477      9476      9479      9482      9478      9476      9479      9480
      9478      9476      9479      9481      9478      9476      9479      9482
      9479      9482      9485      9486      9479      9482      9485      9487
      9479      9482      9485      9488      9480      9479      9482      9483
      9480      9479      9482      9484      9480      9479      9482      9485
      9481      9479      9482      9483      9481      9479      9482      9484
      9481      9479      9482      9485      9482      9485      9488      9489
      9482      9485      9488      9490      9482      9485      9488      9491
      9483      9482      9485      9486      9483      9482      9485      9487
      9483      9482      9485      9488      9484      9482      9485      9486
      9484      9482      9485      9487      9484      9482      9485      9488
      9485      9488      9491      9492      9485      9488      9491      9493
      9485      9488      9491      9494      9486      9485      9488      9489
      9486      9485      9488      9490      9486      9485      9488      9491
      9487      9485      9488      9489      9487      9485      9488      9490
      9487      9485      9488      9491      9488      9491      9494      9495
      9488      9491      9494      9496      9488      9491      9494      9497
      9489      9488      9491      9492      9489      9488      9491      9493
      9489      9488      9491      9494      9490      9488      9491      9492
      9490      9488      9491      9493      9490      9488      9491      9494
      9491      9494      9497      9498      9491      9494      9497      9499
      9491      9494      9497      9500      9492      9491      9494      9495
      9492      9491      9494      9496      9492      9491      9494      9497
      9493      9491      9494      9495      9493      9491      9494      9496
      9493      9491      9494      9497      9495      9494      9497      9498
      9495      9494      9497      9499      9495      9494      9497      9500
      9496      9494      9497      9498      9496      9494      9497      9499
      9496      9494      9497      9500      9501      9504      9507      9508
      9501      9504      9507      9509      9501      9504      9507      9510
      9502      9501      9504      9505      9502      9501      9504      9506
      9502      9501      9504      9507      9503      9501      9504      9505
      9503      9501      9504      9506      9503      9501      9504      9507
      9504      9507      9510      9511      9504      9507      9510      9512
      9504      9507      9510      9513      9505      9504      9507      9508
      9505      9504      9507      9509      9505      9504      9507      9510
      9506      9504      9507      9508      9506      9504      9507      9509
      9506      9504      9507      9510      9507      9510      9513      9514
      9507      9510      9513      9515      9507      9510      9513      9516
      9508      9507      9510      9511      9508      9507      9510      9512
      9508      9507      9510      9513      9509      9507      9510      9511
      9509      9507      9510      9512      9509      9507      9510      9513
      9510      9513      9516      9517      9510      9513      9516      9518
      9510      9513      9516      9519      9511      9510      9513      9514
      9511      9510      9513      9515      9511      9510      9513      9516
      9512      9510      9513      9514      9512      9510      9513      9515
      9512      9510      9513      9516      9513      9516      9519      9520
      9513      9516      9519      9521      9513      9516      9519      9522
      9514      9513      9516      9517      9514      9513      9516      9518
      9514      9513      9516      9519      9515      9513      9516      9517
      9515      9513      9516      9518      9515      9513      9516      9519
      9516      9519      9522      9523      9516      9519      9522      9524
      9516      9519      9522      9525      9517      9516      9519      9520
      9517      9516      9519      9521      9517      9516      9519      9522
      9518      9516      9519      9520      9518      9516      9519      9521
      9518      9516      9519      9522      9519      9522      9525      9526
      9519      9522      9525      9527      9519      9522      9525      9528
      9520      9519      9522      9523      9520      9519      9522      9524
      9520      9519      9522      9525      9521      9519      9522      9523
      9521      9519      9522      9524      9521      9519      9522      9525
      9522      9525      9528      9529      9522      9525      9528      9530
      9522      9525      9528      9531      9523      9522      9525      9526
      9523      9522      9525      9527      9523      9522      9525      9528
      9524      9522      9525      9526      9524      9522      9525      9527
      9524      9522      9525      9528      9525      9528      9531      9532
      9525      9528      9531      9533      9525      9528      9531      9534
      9526      9525      9528      9529      9526      9525      9528      9530
      9526      9525      9528      9531      9527      9525      9528      9529
      9527      9525      9528      9530      9527      9525      9528      9531
      9528      9531      9534      9535      9528      9531      9534      9536
      9528      9531      9534      9537      9529      9528      9531      9532
      9529      9528      9531      9533      9529      9528      9531      9534
      9530      9528      9531      9532      9530      9528      9531      9533
      9530      9528      9531      9534      9531      9534      9537      9538
      9531      9534      9537      9539      9531      9534      9537      9540
      9532      9531      9534      9535      9532      9531      9534      9536
      9532      9531      9534      9537      9533      9531      9534      9535
      9533      9531      9534      9536      9533      9531      9534      9537
      9534      9537      9540      9541      9534      9537      9540      9542
      9534      9537      9540      9543      9535      9534      9537      9538
      9535      9534      9537      9539      9535      9534      9537      9540
      9536      9534      9537      9538      9536      9534      9537      9539
      9536      9534      9537      9540      9538      9537      9540      9541
      9538      9537      9540      9542      9538      9537      9540      9543
      9539      9537      9540      9541      9539      9537      9540      9542
      9539      9537      9540      9543      9544      9545      9560      9561
      9544      9545      9560      9562      9544      9545      9560      9566
      9545      9544      9548      9549      9545      9544      9548      9550
      9545      9544      9548      9551      9545      9544      9552      9553
      9545      9544      9552      9554      9545      9544      9552      9555
      9545      9544      9556      9557      9545      9544      9556      9558
      9545      9544      9556      9559      9545      9560      9566      9563
      9546      9545      9544      9548      9546      9545      9544      9552
      9546      9545      9544      9556      9546      9545      9560      9561
      9546      9545      9560      9562      9546      9545      9560      9566
      9547      9545      9544      9548      9547      9545      9544      9552
      9547      9545      9544      9556      9547      9545      9560      9561
      9547      9545      9560      9562      9547      9545      9560      9566
      9548      9544      9545      9560      9548      9544      9552      9553
      9548      9544      9552      9554      9548      9544      9552      9555
      9548      9544      9556      9557      9548      9544      9556      9558
      9548      9544      9556      9559      9549      9548      9544      9552
      9549      9548      9544      9556      9550      9548      9544      9552
      9550      9548      9544      9556      9551      9548      9544      9552
      9551      9548      9544      9556      9552      9544      9545      9560
      9552      9544      9556      9557      9552      9544      9556      9558
      9552      9544      9556      9559      9553      9552      9544      9556
      9554      9552      9544      9556      9555      9552      9544      9556
      9556      9544      9545      9560      9560      9566      9563      9564
      9560      9566      9563      9565      9560      9566      9563      9567
      9561      9560      9566      9563      9562      9560      9566      9563
      9563      9567      9568      9569      9563      9567      9568      9570
      9563      9567      9568      9571      9564      9563      9567      9568
      9565      9563      9567      9568      9566      9563      9567      9568
      9567      9568      9571      9572      9567      9568      9571      9573
      9567      9568      9571      9579      9568      9571      9573      9574
      9568      9571      9579      9580      9568      9571      9579      9581
      9568      9571      9579      9582      9569      9568      9571      9572
      9569      9568      9571      9573      9569      9568      9571      9579
      9570      9568      9571      9572      9570      9568      9571      9573
      9570      9568      9571      9579      9571      9573      9574      9575
      9571      9573      9574      9576      9571      9579      9582      9583
      9572      9571      9573      9574      9572      9571      9579      9580
      9572      9571      9579      9581      9572      9571      9579      9582
      9573      9571      9579      9580      9573      9571      9579      9581
      9573      9571      9579      9582      9573      9574      9576      9577
      9573      9574      9576      9578      9573      9574      9576      9588
      9574      9573      9571      9579      9574      9576      9588      9589
      9574      9576      9588      9590      9574      9576      9588      9591
      9575      9574      9576      9577      9575      9574      9576      9578
      9575      9574      9576      9588      9576      9588      9591      9592
      9576      9588      9591      9593      9576      9588      9591      9594
      9577      9576      9588      9589      9577      9576      9588      9590
      9577      9576      9588      9591      9578      9576      9588      9589
      9578      9576      9588      9590      9578      9576      9588      9591
      9579      9582      9583      9584      9579      9582      9583      9585
      9580      9579      9582      9583      9581      9579      9582      9583
      9582      9583      9585      9586      9582      9583      9585      9587
      9582      9583      9585      9635      9583      9585      9635      9636
      9583      9585      9635      9637      9583      9585      9635      9638
      9584      9583      9585      9586      9584      9583      9585      9587
      9584      9583      9585      9635      9585      9635      9638      9639
      9585      9635      9638      9640      9585      9635      9638      9641
      9586      9585      9635      9636      9586      9585      9635      9637
      9586      9585      9635      9638      9587      9585      9635      9636
      9587      9585      9635      9637      9587      9585      9635      9638
      9588      9591      9594      9595      9588      9591      9594      9596
      9588      9591      9594      9597      9589      9588      9591      9592
      9589      9588      9591      9593      9589      9588      9591      9594
      9590      9588      9591      9592      9590      9588      9591      9593
      9590      9588      9591      9594      9591      9594      9597      9598
      9591      9594      9597      9599      9591      9594      9597      9600
      9592      9591      9594      9595      9592      9591      9594      9596
      9592      9591      9594      9597      9593      9591      9594      9595
      9593      9591      9594      9596      9593      9591      9594      9597
      9594      9597      9600      9601      9594      9597      9600      9602
      9594      9597      9600      9603      9595      9594      9597      9598
      9595      9594      9597      9599      9595      9594      9597      9600
      9596      9594      9597      9598      9596      9594      9597      9599
      9596      9594      9597      9600      9597      9600      9603      9604
      9597      9600      9603      9605      9597      9600      9603      9606
      9598      9597      9600      9601      9598      9597      9600      9602
      9598      9597      9600      9603      9599      9597      9600      9601
      9599      9597      9600      9602      9599      9597      9600      9603
      9600      9603      9606      9607      9600      9603      9606      9608
      9601      9600      9603      9604      9601      9600      9603      9605
      9601      9600      9603      9606      9602      9600      9603      9604
      9602      9600      9603      9605      9602      9600      9603      9606
      9603      9606      9608      9609      9603      9606      9608      9610
      9604      9603      9606      9607      9604      9603      9606      9608
      9605      9603      9606      9607      9605      9603      9606      9608
      9606      9608      9610      9611      9606      9608      9610      9612
      9606      9608      9610      9613      9607      9606      9608      9609
      9607      9606      9608      9610      9608      9610      9613      9614
      9608      9610      9613      9615      9608      9610      9613      9616
      9609      9608      9610      9611      9609      9608      9610      9612
      9609      9608      9610      9613      9610      9613      9616      9617
      9610      9613      9616      9618      9610      9613      9616      9619
      9611      9610      9613      9614      9611      9610      9613      9615
      9611      9610      9613      9616      9612      9610      9613      9614
      9612      9610      9613      9615      9612      9610      9613      9616
      9613      9616      9619      9620      9613      9616      9619      9621
      9613      9616      9619      9622      9614      9613      9616      9617
      9614      9613      9616      9618      9614      9613      9616      9619
      9615      9613      9616      9617      9615      9613      9616      9618
      9615      9613      9616      9619      9616      9619      9622      9623
      9616      9619      9622      9624      9616      9619      9622      9625
      9617      9616      9619      9620      9617      9616      9619      9621
      9617      9616      9619      9622      9618      9616      9619      9620
      9618      9616      9619      9621      9618      9616      9619      9622
      9619      9622      9625      9626      9619      9622      9625      9627
      9619      9622      9625      9628      9620      9619      9622      9623
      9620      9619      9622      9624      9620      9619      9622      9625
      9621      9619      9622      9623      9621      9619      9622      9624
      9621      9619      9622      9625      9622      9625      9628      9629
      9622      9625      9628      9630      9622      9625      9628      9631
      9623      9622      9625      9626      9623      9622      9625      9627
      9623      9622      9625      9628      9624      9622      9625      9626
      9624      9622      9625      9627      9624      9622      9625      9628
      9625      9628      9631      9632      9625      9628      9631      9633
      9625      9628      9631      9634      9626      9625      9628      9629
      9626      9625      9628      9630      9626      9625      9628      9631
      9627      9625      9628      9629      9627      9625      9628      9630
      9627      9625      9628      9631      9629      9628      9631      9632
      9629      9628      9631      9633      9629      9628      9631      9634
      9630      9628      9631      9632      9630      9628      9631      9633
      9630      9628      9631      9634      9635      9638      9641      9642
      9635      9638      9641      9643      9635      9638      9641      9644
      9636      9635      9638      9639      9636      9635      9638      9640
      9636      9635      9638      9641      9637      9635      9638      9639
      9637      9635      9638      9640      9637      9635      9638      9641
      9638      9641      9644      9645      9638      9641      9644      9646
      9638      9641      9644      9647      9639      9638      9641      9642
      9639      9638      9641      9643      9639      9638      9641      9644
      9640      9638      9641      9642      9640      9638      9641      9643
      9640      9638      9641      9644      9641      9644      9647      9648
      9641      9644      9647      9649      9641      9644      9647      9650
      9642      9641      9644      9645      9642      9641      9644      9646
      9642      9641      9644      9647      9643      9641      9644      9645
      9643      9641      9644      9646      9643      9641      9644      9647
      9644      9647      9650      9651      9644      9647      9650      9652
      9644      9647      9650      9653      9645      9644      9647      9648
      9645      9644      9647      9649      9645      9644      9647      9650
      9646      9644      9647      9648      9646      9644      9647      9649
      9646      9644      9647      9650      9647      9650      9653      9654
      9647      9650      9653      9655      9647      9650      9653      9656
      9648      9647      9650      9651      9648      9647      9650      9652
      9648      9647      9650      9653      9649      9647      9650      9651
      9649      9647      9650      9652      9649      9647      9650      9653
      9650      9653      9656      9657      9650      9653      9656      9658
      9650      9653      9656      9659      9651      9650      9653      9654
      9651      9650      9653      9655      9651      9650      9653      9656
      9652      9650      9653      9654      9652      9650      9653      9655
      9652      9650      9653      9656      9653      9656      9659      9660
      9653      9656      9659      9661      9653      9656      9659      9662
      9654      9653      9656      9657      9654      9653      9656      9658
      9654      9653      9656      9659      9655      9653      9656      9657
      9655      9653      9656      9658      9655      9653      9656      9659
      9656      9659      9662      9663      9656      9659      9662      9664
      9656      9659      9662      9665      9657      9656      9659      9660
      9657      9656      9659      9661      9657      9656      9659      9662
      9658      9656      9659      9660      9658      9656      9659      9661
      9658      9656      9659      9662      9659      9662      9665      9666
      9659      9662      9665      9667      9659      9662      9665      9668
      9660      9659      9662      9663      9660      9659      9662      9664
      9660      9659      9662      9665      9661      9659      9662      9663
      9661      9659      9662      9664      9661      9659      9662      9665
      9662      9665      9668      9669      9662      9665      9668      9670
      9662      9665      9668      9671      9663      9662      9665      9666
      9663      9662      9665      9667      9663      9662      9665      9668
      9664      9662      9665      9666      9664      9662      9665      9667
      9664      9662      9665      9668      9665      9668      9671      9672
      9665      9668      9671      9673      9665      9668      9671      9674
      9666      9665      9668      9669      9666      9665      9668      9670
      9666      9665      9668      9671      9667      9665      9668      9669
      9667      9665      9668      9670      9667      9665      9668      9671
      9668      9671      9674      9675      9668      9671      9674      9676
      9668      9671      9674      9677      9669      9668      9671      9672
      9669      9668      9671      9673      9669      9668      9671      9674
      9670      9668      9671      9672      9670      9668      9671      9673
      9670      9668      9671      9674      9672      9671      9674      9675
      9672      9671      9674      9676      9672      9671      9674      9677
      9673      9671      9674      9675      9673      9671      9674      9676
      9673      9671      9674      9677      9678      9682      9684      9685
      9678      9682      9684      9686      9678      9682      9687      9688
      9678      9682      9687      9689      9678      9682      9687      9693
      9679      9678      9682      9683      9679      9678      9682      9684
      9679      9678      9682      9687      9680      9678      9682      9683
      9680      9678      9682      9684      9680      9678      9682      9687
      9681      9678      9682      9683      9681      9678      9682      9684
      9681      9678      9682      9687      9682      9687      9693      9690
      9683      9682      9684      9685      9683      9682      9684      9686
      9683      9682      9687      9688      9683      9682      9687      9689
      9683      9682      9687      9693      9684      9682      9687      9688
      9684      9682      9687      9689      9684      9682      9687      9693
      9685      9684      9682      9687      9686      9684      9682      9687
      9687      9693      9690      9691      9687      9693      9690      9692
      9687      9693      9690      9694      9688      9687      9693      9690
      9689      9687      9693      9690      9690      9694      9695      9696
      9690      9694      9695      9697      9690      9694      9695      9698
      9691      9690      9694      9695      9692      9690      9694      9695
      9693      9690      9694      9695      9694      9695      9698      9699
      9694      9695      9698      9700      9694      9695      9698      9706
      9695      9698      9700      9701      9695      9698      9706      9707
      9695      9698      9706      9708      9695      9698      9706      9709
      9696      9695      9698      9699      9696      9695      9698      9700
      9696      9695      9698      9706      9697      9695      9698      9699
      9697      9695      9698      9700      9697      9695      9698      9706
      9698      9700      9701      9702      9698      9700      9701      9703
      9698      9706      9709      9710      9699      9698      9700      9701
      9699      9698      9706      9707      9699      9698      9706      9708
      9699      9698      9706      9709      9700      9698      9706      9707
      9700      9698      9706      9708      9700      9698      9706      9709
      9700      9701      9703      9704      9700      9701      9703      9705
      9700      9701      9703      9715      9701      9700      9698      9706
      9701      9703      9715      9716      9701      9703      9715      9717
      9701      9703      9715      9718      9702      9701      9703      9704
      9702      9701      9703      9705      9702      9701      9703      9715
      9703      9715      9718      9719      9703      9715      9718      9720
      9703      9715      9718      9721      9704      9703      9715      9716
      9704      9703      9715      9717      9704      9703      9715      9718
      9705      9703      9715      9716      9705      9703      9715      9717
      9705      9703      9715      9718      9706      9709      9710      9711
      9706      9709      9710      9712      9707      9706      9709      9710
      9708      9706      9709      9710      9709      9710      9712      9713
      9709      9710      9712      9714      9709      9710      9712      9762
      9710      9712      9762      9763      9710      9712      9762      9764
      9710      9712      9762      9765      9711      9710      9712      9713
      9711      9710      9712      9714      9711      9710      9712      9762
      9712      9762      9765      9766      9712      9762      9765      9767
      9712      9762      9765      9768      9713      9712      9762      9763
      9713      9712      9762      9764      9713      9712      9762      9765
      9714      9712      9762      9763      9714      9712      9762      9764
      9714      9712      9762      9765      9715      9718      9721      9722
      9715      9718      9721      9723      9715      9718      9721      9724
      9716      9715      9718      9719      9716      9715      9718      9720
      9716      9715      9718      9721      9717      9715      9718      9719
      9717      9715      9718      9720      9717      9715      9718      9721
      9718      9721      9724      9725      9718      9721      9724      9726
      9718      9721      9724      9727      9719      9718      9721      9722
      9719      9718      9721      9723      9719      9718      9721      9724
      9720      9718      9721      9722      9720      9718      9721      9723
      9720      9718      9721      9724      9721      9724      9727      9728
      9721      9724      9727      9729      9721      9724      9727      9730
      9722      9721      9724      9725      9722      9721      9724      9726
      9722      9721      9724      9727      9723      9721      9724      9725
      9723      9721      9724      9726      9723      9721      9724      9727
      9724      9727      9730      9731      9724      9727      9730      9732
      9724      9727      9730      9733      9725      9724      9727      9728
      9725      9724      9727      9729      9725      9724      9727      9730
      9726      9724      9727      9728      9726      9724      9727      9729
      9726      9724      9727      9730      9727      9730      9733      9734
      9727      9730      9733      9735      9728      9727      9730      9731
      9728      9727      9730      9732      9728      9727      9730      9733
      9729      9727      9730      9731      9729      9727      9730      9732
      9729      9727      9730      9733      9730      9733      9735      9736
      9730      9733      9735      9737      9731      9730      9733      9734
      9731      9730      9733      9735      9732      9730      9733      9734
      9732      9730      9733      9735      9733      9735      9737      9738
      9733      9735      9737      9739      9733      9735      9737      9740
      9734      9733      9735      9736      9734      9733      9735      9737
      9735      9737      9740      9741      9735      9737      9740      9742
      9735      9737      9740      9743      9736      9735      9737      9738
      9736      9735      9737      9739      9736      9735      9737      9740
      9737      9740      9743      9744      9737      9740      9743      9745
      9737      9740      9743      9746      9738      9737      9740      9741
      9738      9737      9740      9742      9738      9737      9740      9743
      9739      9737      9740      9741      9739      9737      9740      9742
      9739      9737      9740      9743      9740      9743      9746      9747
      9740      9743      9746      9748      9740      9743      9746      9749
      9741      9740      9743      9744      9741      9740      9743      9745
      9741      9740      9743      9746      9742      9740      9743      9744
      9742      9740      9743      9745      9742      9740      9743      9746
      9743      9746      9749      9750      9743      9746      9749      9751
      9743      9746      9749      9752      9744      9743      9746      9747
      9744      9743      9746      9748      9744      9743      9746      9749
      9745      9743      9746      9747      9745      9743      9746      9748
      9745      9743      9746      9749      9746      9749      9752      9753
      9746      9749      9752      9754      9746      9749      9752      9755
      9747      9746      9749      9750      9747      9746      9749      9751
      9747      9746      9749      9752      9748      9746      9749      9750
      9748      9746      9749      9751      9748      9746      9749      9752
      9749      9752      9755      9756      9749      9752      9755      9757
      9749      9752      9755      9758      9750      9749      9752      9753
      9750      9749      9752      9754      9750      9749      9752      9755
      9751      9749      9752      9753      9751      9749      9752      9754
      9751      9749      9752      9755      9752      9755      9758      9759
      9752      9755      9758      9760      9752      9755      9758      9761
      9753      9752      9755      9756      9753      9752      9755      9757
      9753      9752      9755      9758      9754      9752      9755      9756
      9754      9752      9755      9757      9754      9752      9755      9758
      9756      9755      9758      9759      9756      9755      9758      9760
      9756      9755      9758      9761      9757      9755      9758      9759
      9757      9755      9758      9760      9757      9755      9758      9761
      9762      9765      9768      9769      9762      9765      9768      9770
      9762      9765      9768      9771      9763      9762      9765      9766
      9763      9762      9765      9767      9763      9762      9765      9768
      9764      9762      9765      9766      9764      9762      9765      9767
      9764      9762      9765      9768      9765      9768      9771      9772
      9765      9768      9771      9773      9765      9768      9771      9774
      9766      9765      9768      9769      9766      9765      9768      9770
      9766      9765      9768      9771      9767      9765      9768      9769
      9767      9765      9768      9770      9767      9765      9768      9771
      9768      9771      9774      9775      9768      9771      9774      9776
      9768      9771      9774      9777      9769      9768      9771      9772
      9769      9768      9771      9773      9769      9768      9771      9774
      9770      9768      9771      9772      9770      9768      9771      9773
      9770      9768      9771      9774      9771      9774      9777      9778
      9771      9774      9777      9779      9771      9774      9777      9780
      9772      9771      9774      9775      9772      9771      9774      9776
      9772      9771      9774      9777      9773      9771      9774      9775
      9773      9771      9774      9776      9773      9771      9774      9777
      9774      9777      9780      9781      9774      9777      9780      9782
      9774      9777      9780      9783      9775      9774      9777      9778
      9775      9774      9777      9779      9775      9774      9777      9780
      9776      9774      9777      9778      9776      9774      9777      9779
      9776      9774      9777      9780      9777      9780      9783      9784
      9777      9780      9783      9785      9777      9780      9783      9786
      9778      9777      9780      9781      9778      9777      9780      9782
      9778      9777      9780      9783      9779      9777      9780      9781
      9779      9777      9780      9782      9779      9777      9780      9783
      9780      9783      9786      9787      9780      9783      9786      9788
      9780      9783      9786      9789      9781      9780      9783      9784
      9781      9780      9783      9785      9781      9780      9783      9786
      9782      9780      9783      9784      9782      9780      9783      9785
      9782      9780      9783      9786      9783      9786      9789      9790
      9783      9786      9789      9791      9783      9786      9789      9792
      9784      9783      9786      9787      9784      9783      9786      9788
      9784      9783      9786      9789      9785      9783      9786      9787
      9785      9783      9786      9788      9785      9783      9786      9789
      9786      9789      9792      9793      9786      9789      9792      9794
      9786      9789      9792      9795      9787      9786      9789      9790
      9787      9786      9789      9791      9787      9786      9789      9792
      9788      9786      9789      9790      9788      9786      9789      9791
      9788      9786      9789      9792      9789      9792      9795      9796
      9789      9792      9795      9797      9789      9792      9795      9798
      9790      9789      9792      9793      9790      9789      9792      9794
      9790      9789      9792      9795      9791      9789      9792      9793
      9791      9789      9792      9794      9791      9789      9792      9795
      9792      9795      9798      9799      9792      9795      9798      9800
      9792      9795      9798      9801      9793      9792      9795      9796
      9793      9792      9795      9797      9793      9792      9795      9798
      9794      9792      9795      9796      9794      9792      9795      9797
      9794      9792      9795      9798      9795      9798      9801      9802
      9795      9798      9801      9803      9795      9798      9801      9804
      9796      9795      9798      9799      9796      9795      9798      9800
      9796      9795      9798      9801      9797      9795      9798      9799
      9797      9795      9798      9800      9797      9795      9798      9801
      9799      9798      9801      9802      9799      9798      9801      9803
      9799      9798      9801      9804      9800      9798      9801      9802
      9800      9798      9801      9803      9800      9798      9801      9804
      9805      9806      9821      9822      9805      9806      9821      9823
      9805      9806      9821      9827      9806      9805      9809      9810
      9806      9805      9809      9811      9806      9805      9809      9812
      9806      9805      9813      9814      9806      9805      9813      9815
      9806      9805      9813      9816      9806      9805      9817      9818
      9806      9805      9817      9819      9806      9805      9817      9820
      9806      9821      9827      9824      9807      9806      9805      9809
      9807      9806      9805      9813      9807      9806      9805      9817
      9807      9806      9821      9822      9807      9806      9821      9823
      9807      9806      9821      9827      9808      9806      9805      9809
      9808      9806      9805      9813      9808      9806      9805      9817
      9808      9806      9821      9822      9808      9806      9821      9823
      9808      9806      9821      9827      9809      9805      9806      9821
      9809      9805      9813      9814      9809      9805      9813      9815
      9809      9805      9813      9816      9809      9805      9817      9818
      9809      9805      9817      9819      9809      9805      9817      9820
      9810      9809      9805      9813      9810      9809      9805      9817
      9811      9809      9805      9813      9811      9809      9805      9817
      9812      9809      9805      9813      9812      9809      9805      9817
      9813      9805      9806      9821      9813      9805      9817      9818
      9813      9805      9817      9819      9813      9805      9817      9820
      9814      9813      9805      9817      9815      9813      9805      9817
      9816      9813      9805      9817      9817      9805      9806      9821
      9821      9827      9824      9825      9821      9827      9824      9826
      9821      9827      9824      9828      9822      9821      9827      9824
      9823      9821      9827      9824      9824      9828      9829      9830
      9824      9828      9829      9831      9824      9828      9829      9832
      9825      9824      9828      9829      9826      9824      9828      9829
      9827      9824      9828      9829      9828      9829      9832      9833
      9828      9829      9832      9834      9828      9829      9832      9840
      9829      9832      9834      9835      9829      9832      9840      9841
      9829      9832      9840      9842      9829      9832      9840      9843
      9830      9829      9832      9833      9830      9829      9832      9834
      9830      9829      9832      9840      9831      9829      9832      9833
      9831      9829      9832      9834      9831      9829      9832      9840
      9832      9834      9835      9836      9832      9834      9835      9837
      9832      9840      9843      9844      9833      9832      9834      9835
      9833      9832      9840      9841      9833      9832      9840      9842
      9833      9832      9840      9843      9834      9832      9840      9841
      9834      9832      9840      9842      9834      9832      9840      9843
      9834      9835      9837      9838      9834      9835      9837      9839
      9834      9835      9837      9849      9835      9834      9832      9840
      9835      9837      9849      9850      9835      9837      9849      9851
      9835      9837      9849      9852      9836      9835      9837      9838
      9836      9835      9837      9839      9836      9835      9837      9849
      9837      9849      9852      9853      9837      9849      9852      9854
      9837      9849      9852      9855      9838      9837      9849      9850
      9838      9837      9849      9851      9838      9837      9849      9852
      9839      9837      9849      9850      9839      9837      9849      9851
      9839      9837      9849      9852      9840      9843      9844      9845
      9840      9843      9844      9846      9841      9840      9843      9844
      9842      9840      9843      9844      9843      9844      9846      9847
      9843      9844      9846      9848      9843      9844      9846      9896
      9844      9846      9896      9897      9844      9846      9896      9898
      9844      9846      9896      9899      9845      9844      9846      9847
      9845      9844      9846      9848      9845      9844      9846      9896
      9846      9896      9899      9900      9846      9896      9899      9901
      9846      9896      9899      9902      9847      9846      9896      9897
      9847      9846      9896      9898      9847      9846      9896      9899
      9848      9846      9896      9897      9848      9846      9896      9898
      9848      9846      9896      9899      9849      9852      9855      9856
      9849      9852      9855      9857      9849      9852      9855      9858
      9850      9849      9852      9853      9850      9849      9852      9854
      9850      9849      9852      9855      9851      9849      9852      9853
      9851      9849      9852      9854      9851      9849      9852      9855
      9852      9855      9858      9859      9852      9855      9858      9860
      9852      9855      9858      9861      9853      9852      9855      9856
      9853      9852      9855      9857      9853      9852      9855      9858
      9854      9852      9855      9856      9854      9852      9855      9857
      9854      9852      9855      9858      9855      9858      9861      9862
      9855      9858      9861      9863      9855      9858      9861      9864
      9856      9855      9858      9859      9856      9855      9858      9860
      9856      9855      9858      9861      9857      9855      9858      9859
      9857      9855      9858      9860      9857      9855      9858      9861
      9858      9861      9864      9865      9858      9861      9864      9866
      9858      9861      9864      9867      9859      9858      9861      9862
      9859      9858      9861      9863      9859      9858      9861      9864
      9860      9858      9861      9862      9860      9858      9861      9863
      9860      9858      9861      9864      9861      9864      9867      9868
      9861      9864      9867      9869      9862      9861      9864      9865
      9862      9861      9864      9866      9862      9861      9864      9867
      9863      9861      9864      9865      9863      9861      9864      9866
      9863      9861      9864      9867      9864      9867      9869      9870
      9864      9867      9869      9871      9865      9864      9867      9868
      9865      9864      9867      9869      9866      9864      9867      9868
      9866      9864      9867      9869      9867      9869      9871      9872
      9867      9869      9871      9873      9867      9869      9871      9874
      9868      9867      9869      9870      9868      9867      9869      9871
      9869      9871      9874      9875      9869      9871      9874      9876
      9869      9871      9874      9877      9870      9869      9871      9872
      9870      9869      9871      9873      9870      9869      9871      9874
      9871      9874      9877      9878      9871      9874      9877      9879
      9871      9874      9877      9880      9872      9871      9874      9875
      9872      9871      9874      9876      9872      9871      9874      9877
      9873      9871      9874      9875      9873      9871      9874      9876
      9873      9871      9874      9877      9874      9877      9880      9881
      9874      9877      9880      9882      9874      9877      9880      9883
      9875      9874      9877      9878      9875      9874      9877      9879
      9875      9874      9877      9880      9876      9874      9877      9878
      9876      9874      9877      9879      9876      9874      9877      9880
      9877      9880      9883      9884      9877      9880      9883      9885
      9877      9880      9883      9886      9878      9877      9880      9881
      9878      9877      9880      9882      9878      9877      9880      9883
      9879      9877      9880      9881      9879      9877      9880      9882
      9879      9877      9880      9883      9880      9883      9886      9887
      9880      9883      9886      9888      9880      9883      9886      9889
      9881      9880      9883      9884      9881      9880      9883      9885
      9881      9880      9883      9886      9882      9880      9883      9884
      9882      9880      9883      9885      9882      9880      9883      9886
      9883      9886      9889      9890      9883      9886      9889      9891
      9883      9886      9889      9892      9884      9883      9886      9887
      9884      9883      9886      9888      9884      9883      9886      9889
      9885      9883      9886      9887      9885      9883      9886      9888
      9885      9883      9886      9889      9886      9889      9892      9893
      9886      9889      9892      9894      9886      9889      9892      9895
      9887      9886      9889      9890      9887      9886      9889      9891
      9887      9886      9889      9892      9888      9886      9889      9890
      9888      9886      9889      9891      9888      9886      9889      9892
      9890      9889      9892      9893      9890      9889      9892      9894
      9890      9889      9892      9895      9891      9889      9892      9893
      9891      9889      9892      9894      9891      9889      9892      9895
      9896      9899      9902      9903      9896      9899      9902      9904
      9896      9899      9902      9905      9897      9896      9899      9900
      9897      9896      9899      9901      9897      9896      9899      9902
      9898      9896      9899      9900      9898      9896      9899      9901
      9898      9896      9899      9902      9899      9902      9905      9906
      9899      9902      9905      9907      9899      9902      9905      9908
      9900      9899      9902      9903      9900      9899      9902      9904
      9900      9899      9902      9905      9901      9899      9902      9903
      9901      9899      9902      9904      9901      9899      9902      9905
      9902      9905      9908      9909      9902      9905      9908      9910
      9902      9905      9908      9911      9903      9902      9905      9906
      9903      9902      9905      9907      9903      9902      9905      9908
      9904      9902      9905      9906      9904      9902      9905      9907
      9904      9902      9905      9908      9905      9908      9911      9912
      9905      9908      9911      9913      9905      9908      9911      9914
      9906      9905      9908      9909      9906      9905      9908      9910
      9906      9905      9908      9911      9907      9905      9908      9909
      9907      9905      9908      9910      9907      9905      9908      9911
      9908      9911      9914      9915      9908      9911      9914      9916
      9908      9911      9914      9917      9909      9908      9911      9912
      9909      9908      9911      9913      9909      9908      9911      9914
      9910      9908      9911      9912      9910      9908      9911      9913
      9910      9908      9911      9914      9911      9914      9917      9918
      9911      9914      9917      9919      9911      9914      9917      9920
      9912      9911      9914      9915      9912      9911      9914      9916
      9912      9911      9914      9917      9913      9911      9914      9915
      9913      9911      9914      9916      9913      9911      9914      9917
      9914      9917      9920      9921      9914      9917      9920      9922
      9914      9917      9920      9923      9915      9914      9917      9918
      9915      9914      9917      9919      9915      9914      9917      9920
      9916      9914      9917      9918      9916      9914      9917      9919
      9916      9914      9917      9920      9917      9920      9923      9924
      9917      9920      9923      9925      9917      9920      9923      9926
      9918      9917      9920      9921      9918      9917      9920      9922
      9918      9917      9920      9923      9919      9917      9920      9921
      9919      9917      9920      9922      9919      9917      9920      9923
      9920      9923      9926      9927      9920      9923      9926      9928
      9920      9923      9926      9929      9921      9920      9923      9924
      9921      9920      9923      9925      9921      9920      9923      9926
      9922      9920      9923      9924      9922      9920      9923      9925
      9922      9920      9923      9926      9923      9926      9929      9930
      9923      9926      9929      9931      9923      9926      9929      9932
      9924      9923      9926      9927      9924      9923      9926      9928
      9924      9923      9926      9929      9925      9923      9926      9927
      9925      9923      9926      9928      9925      9923      9926      9929
      9926      9929      9932      9933      9926      9929      9932      9934
      9926      9929      9932      9935      9927      9926      9929      9930
      9927      9926      9929      9931      9927      9926      9929      9932
      9928      9926      9929      9930      9928      9926      9929      9931
      9928      9926      9929      9932      9929      9932      9935      9936
      9929      9932      9935      9937      9929      9932      9935      9938
      9930      9929      9932      9933      9930      9929      9932      9934
      9930      9929      9932      9935      9931      9929      9932      9933
      9931      9929      9932      9934      9931      9929      9932      9935
      9933      9932      9935      9936      9933      9932      9935      9937
      9933      9932      9935      9938      9934      9932      9935      9936
      9934      9932      9935      9937      9934      9932      9935      9938
      9939      9940      9955      9956      9939      9940      9955      9957
      9939      9940      9955      9961      9940      9939      9943      9944
      9940      9939      9943      9945      9940      9939      9943      9946
      9940      9939      9947      9948      9940      9939      9947      9949
      9940      9939      9947      9950      9940      9939      9951      9952
      9940      9939      9951      9953      9940      9939      9951      9954
      9940      9955      9961      9958      9941      9940      9939      9943
      9941      9940      9939      9947      9941      9940      9939      9951
      9941      9940      9955      9956      9941      9940      9955      9957
      9941      9940      9955      9961      9942      9940      9939      9943
      9942      9940      9939      9947      9942      9940      9939      9951
      9942      9940      9955      9956      9942      9940      9955      9957
      9942      9940      9955      9961      9943      9939      9940      9955
      9943      9939      9947      9948      9943      9939      9947      9949
      9943      9939      9947      9950      9943      9939      9951      9952
      9943      9939      9951      9953      9943      9939      9951      9954
      9944      9943      9939      9947      9944      9943      9939      9951
      9945      9943      9939      9947      9945      9943      9939      9951
      9946      9943      9939      9947      9946      9943      9939      9951
      9947      9939      9940      9955      9947      9939      9951      9952
      9947      9939      9951      9953      9947      9939      9951      9954
      9948      9947      9939      9951      9949      9947      9939      9951
      9950      9947      9939      9951      9951      9939      9940      9955
      9955      9961      9958      9959      9955      9961      9958      9960
      9955      9961      9958      9962      9956      9955      9961      9958
      9957      9955      9961      9958      9958      9962      9963      9964
      9958      9962      9963      9965      9958      9962      9963      9966
      9959      9958      9962      9963      9960      9958      9962      9963
      9961      9958      9962      9963      9962      9963      9966      9967
      9962      9963      9966      9968      9962      9963      9966      9974
      9963      9966      9968      9969      9963      9966      9974      9975
      9963      9966      9974      9976      9963      9966      9974      9977
      9964      9963      9966      9967      9964      9963      9966      9968
      9964      9963      9966      9974      9965      9963      9966      9967
      9965      9963      9966      9968      9965      9963      9966      9974
      9966      9968      9969      9970      9966      9968      9969      9971
      9966      9974      9977      9978      9967      9966      9968      9969
      9967      9966      9974      9975      9967      9966      9974      9976
      9967      9966      9974      9977      9968      9966      9974      9975
      9968      9966      9974      9976      9968      9966      9974      9977
      9968      9969      9971      9972      9968      9969      9971      9973
      9968      9969      9971      9983      9969      9968      9966      9974
      9969      9971      9983      9984      9969      9971      9983      9985
      9969      9971      9983      9986      9970      9969      9971      9972
      9970      9969      9971      9973      9970      9969      9971      9983
      9971      9983      9986      9987      9971      9983      9986      9988
      9971      9983      9986      9989      9972      9971      9983      9984
      9972      9971      9983      9985      9972      9971      9983      9986
      9973      9971      9983      9984      9973      9971      9983      9985
      9973      9971      9983      9986      9974      9977      9978      9979
      9974      9977      9978      9980      9975      9974      9977      9978
      9976      9974      9977      9978      9977      9978      9980      9981
      9977      9978      9980      9982      9977      9978      9980     10030
      9978      9980     10030     10031      9978      9980     10030     10032
      9978      9980     10030     10033      9979      9978      9980      9981
      9979      9978      9980      9982      9979      9978      9980     10030
      9980     10030     10033     10034      9980     10030     10033     10035
      9980     10030     10033     10036      9981      9980     10030     10031
      9981      9980     10030     10032      9981      9980     10030     10033
      9982      9980     10030     10031      9982      9980     10030     10032
      9982      9980     10030     10033      9983      9986      9989      9990
      9983      9986      9989      9991      9983      9986      9989      9992
      9984      9983      9986      9987      9984      9983      9986      9988
      9984      9983      9986      9989      9985      9983      9986      9987
      9985      9983      9986      9988      9985      9983      9986      9989
      9986      9989      9992      9993      9986      9989      9992      9994
      9986      9989      9992      9995      9987      9986      9989      9990
      9987      9986      9989      9991      9987      9986      9989      9992
      9988      9986      9989      9990      9988      9986      9989      9991
      9988      9986      9989      9992      9989      9992      9995      9996
      9989      9992      9995      9997      9989      9992      9995      9998
      9990      9989      9992      9993      9990      9989      9992      9994
      9990      9989      9992      9995      9991      9989      9992      9993
      9991      9989      9992      9994      9991      9989      9992      9995
      9992      9995      9998      9999      9992      9995      9998     10000
      9992      9995      9998     10001      9993      9992      9995      9996
      9993      9992      9995      9997      9993      9992      9995      9998
      9994      9992      9995      9996      9994      9992      9995      9997
      9994      9992      9995      9998      9995      9998     10001     10002
      9995      9998     10001     10003      9996      9995      9998      9999
      9996      9995      9998     10000      9996      9995      9998     10001
      9997      9995      9998      9999      9997      9995      9998     10000
      9997      9995      9998     10001      9998     10001     10003     10004
      9998     10001     10003     10005      9999      9998     10001     10002
      9999      9998     10001     10003     10000      9998     10001     10002
     10000      9998     10001     10003     10001     10003     10005     10006
     10001     10003     10005     10007     10001     10003     10005     10008
     10002     10001     10003     10004     10002     10001     10003     10005
     10003     10005     10008     10009     10003     10005     10008     10010
     10003     10005     10008     10011     10004     10003     10005     10006
     10004     10003     10005     10007     10004     10003     10005     10008
     10005     10008     10011     10012     10005     10008     10011     10013
     10005     10008     10011     10014     10006     10005     10008     10009
     10006     10005     10008     10010     10006     10005     10008     10011
     10007     10005     10008     10009     10007     10005     10008     10010
     10007     10005     10008     10011     10008     10011     10014     10015
     10008     10011     10014     10016     10008     10011     10014     10017
     10009     10008     10011     10012     10009     10008     10011     10013
     10009     10008     10011     10014     10010     10008     10011     10012
     10010     10008     10011     10013     10010     10008     10011     10014
     10011     10014     10017     10018     10011     10014     10017     10019
     10011     10014     10017     10020     10012     10011     10014     10015
     10012     10011     10014     10016     10012     10011     10014     10017
     10013     10011     10014     10015     10013     10011     10014     10016
     10013     10011     10014     10017     10014     10017     10020     10021
     10014     10017     10020     10022     10014     10017     10020     10023
     10015     10014     10017     10018     10015     10014     10017     10019
     10015     10014     10017     10020     10016     10014     10017     10018
     10016     10014     10017     10019     10016     10014     10017     10020
     10017     10020     10023     10024     10017     10020     10023     10025
     10017     10020     10023     10026     10018     10017     10020     10021
     10018     10017     10020     10022     10018     10017     10020     10023
     10019     10017     10020     10021     10019     10017     10020     10022
     10019     10017     10020     10023     10020     10023     10026     10027
     10020     10023     10026     10028     10020     10023     10026     10029
     10021     10020     10023     10024     10021     10020     10023     10025
     10021     10020     10023     10026     10022     10020     10023     10024
     10022     10020     10023     10025     10022     10020     10023     10026
     10024     10023     10026     10027     10024     10023     10026     10028
     10024     10023     10026     10029     10025     10023     10026     10027
     10025     10023     10026     10028     10025     10023     10026     10029
     10030     10033     10036     10037     10030     10033     10036     10038
     10030     10033     10036     10039     10031     10030     10033     10034
     10031     10030     10033     10035     10031     10030     10033     10036
     10032     10030     10033     10034     10032     10030     10033     10035
     10032     10030     10033     10036     10033     10036     10039     10040
     10033     10036     10039     10041     10033     10036     10039     10042
     10034     10033     10036     10037     10034     10033     10036     10038
     10034     10033     10036     10039     10035     10033     10036     10037
     10035     10033     10036     10038     10035     10033     10036     10039
     10036     10039     10042     10043     10036     10039     10042     10044
     10036     10039     10042     10045     10037     10036     10039     10040
     10037     10036     10039     10041     10037     10036     10039     10042
     10038     10036     10039     10040     10038     10036     10039     10041
     10038     10036     10039     10042     10039     10042     10045     10046
     10039     10042     10045     10047     10039     10042     10045     10048
     10040     10039     10042     10043     10040     10039     10042     10044
     10040     10039     10042     10045     10041     10039     10042     10043
     10041     10039     10042     10044     10041     10039     10042     10045
     10042     10045     10048     10049     10042     10045     10048     10050
     10042     10045     10048     10051     10043     10042     10045     10046
     10043     10042     10045     10047     10043     10042     10045     10048
     10044     10042     10045     10046     10044     10042     10045     10047
     10044     10042     10045     10048     10045     10048     10051     10052
     10045     10048     10051     10053     10045     10048     10051     10054
     10046     10045     10048     10049     10046     10045     10048     10050
     10046     10045     10048     10051     10047     10045     10048     10049
     10047     10045     10048     10050     10047     10045     10048     10051
     10048     10051     10054     10055     10048     10051     10054     10056
     10048     10051     10054     10057     10049     10048     10051     10052
     10049     10048     10051     10053     10049     10048     10051     10054
     10050     10048     10051     10052     10050     10048     10051     10053
     10050     10048     10051     10054     10051     10054     10057     10058
     10051     10054     10057     10059     10051     10054     10057     10060
     10052     10051     10054     10055     10052     10051     10054     10056
     10052     10051     10054     10057     10053     10051     10054     10055
     10053     10051     10054     10056     10053     10051     10054     10057
     10054     10057     10060     10061     10054     10057     10060     10062
     10054     10057     10060     10063     10055     10054     10057     10058
     10055     10054     10057     10059     10055     10054     10057     10060
     10056     10054     10057     10058     10056     10054     10057     10059
     10056     10054     10057     10060     10057     10060     10063     10064
     10057     10060     10063     10065     10057     10060     10063     10066
     10058     10057     10060     10061     10058     10057     10060     10062
     10058     10057     10060     10063     10059     10057     10060     10061
     10059     10057     10060     10062     10059     10057     10060     10063
     10060     10063     10066     10067     10060     10063     10066     10068
     10060     10063     10066     10069     10061     10060     10063     10064
     10061     10060     10063     10065     10061     10060     10063     10066
     10062     10060     10063     10064     10062     10060     10063     10065
     10062     10060     10063     10066     10063     10066     10069     10070
     10063     10066     10069     10071     10063     10066     10069     10072
     10064     10063     10066     10067     10064     10063     10066     10068
     10064     10063     10066     10069     10065     10063     10066     10067
     10065     10063     10066     10068     10065     10063     10066     10069
     10067     10066     10069     10070     10067     10066     10069     10071
     10067     10066     10069     10072     10068     10066     10069     10070
     10068     10066     10069     10071     10068     10066     10069     10072
     10073     10074     10089     10090     10073     10074     10089     10091
     10073     10074     10089     10095     10074     10073     10077     10078
     10074     10073     10077     10079     10074     10073     10077     10080
     10074     10073     10081     10082     10074     10073     10081     10083
     10074     10073     10081     10084     10074     10073     10085     10086
     10074     10073     10085     10087     10074     10073     10085     10088
     10074     10089     10095     10092     10075     10074     10073     10077
     10075     10074     10073     10081     10075     10074     10073     10085
     10075     10074     10089     10090     10075     10074     10089     10091
     10075     10074     10089     10095     10076     10074     10073     10077
     10076     10074     10073     10081     10076     10074     10073     10085
     10076     10074     10089     10090     10076     10074     10089     10091
     10076     10074     10089     10095     10077     10073     10074     10089
     10077     10073     10081     10082     10077     10073     10081     10083
     10077     10073     10081     10084     10077     10073     10085     10086
     10077     10073     10085     10087     10077     10073     10085     10088
     10078     10077     10073     10081     10078     10077     10073     10085
     10079     10077     10073     10081     10079     10077     10073     10085
     10080     10077     10073     10081     10080     10077     10073     10085
     10081     10073     10074     10089     10081     10073     10085     10086
     10081     10073     10085     10087     10081     10073     10085     10088
     10082     10081     10073     10085     10083     10081     10073     10085
     10084     10081     10073     10085     10085     10073     10074     10089
     10089     10095     10092     10093     10089     10095     10092     10094
     10089     10095     10092     10096     10090     10089     10095     10092
     10091     10089     10095     10092     10092     10096     10097     10098
     10092     10096     10097     10099     10092     10096     10097     10100
     10093     10092     10096     10097     10094     10092     10096     10097
     10095     10092     10096     10097     10096     10097     10100     10101
     10096     10097     10100     10102     10096     10097     10100     10108
     10097     10100     10102     10103     10097     10100     10108     10109
     10097     10100     10108     10110     10097     10100     10108     10111
     10098     10097     10100     10101     10098     10097     10100     10102
     10098     10097     10100     10108     10099     10097     10100     10101
     10099     10097     10100     10102     10099     10097     10100     10108
     10100     10102     10103     10104     10100     10102     10103     10105
     10100     10108     10111     10112     10101     10100     10102     10103
     10101     10100     10108     10109     10101     10100     10108     10110
     10101     10100     10108     10111     10102     10100     10108     10109
     10102     10100     10108     10110     10102     10100     10108     10111
     10102     10103     10105     10106     10102     10103     10105     10107
     10102     10103     10105     10117     10103     10102     10100     10108
     10103     10105     10117     10118     10103     10105     10117     10119
     10103     10105     10117     10120     10104     10103     10105     10106
     10104     10103     10105     10107     10104     10103     10105     10117
     10105     10117     10120     10121     10105     10117     10120     10122
     10105     10117     10120     10123     10106     10105     10117     10118
     10106     10105     10117     10119     10106     10105     10117     10120
     10107     10105     10117     10118     10107     10105     10117     10119
     10107     10105     10117     10120     10108     10111     10112     10113
     10108     10111     10112     10114     10109     10108     10111     10112
     10110     10108     10111     10112     10111     10112     10114     10115
     10111     10112     10114     10116     10111     10112     10114     10164
     10112     10114     10164     10165     10112     10114     10164     10166
     10112     10114     10164     10167     10113     10112     10114     10115
     10113     10112     10114     10116     10113     10112     10114     10164
     10114     10164     10167     10168     10114     10164     10167     10169
     10114     10164     10167     10170     10115     10114     10164     10165
     10115     10114     10164     10166     10115     10114     10164     10167
     10116     10114     10164     10165     10116     10114     10164     10166
     10116     10114     10164     10167     10117     10120     10123     10124
     10117     10120     10123     10125     10117     10120     10123     10126
     10118     10117     10120     10121     10118     10117     10120     10122
     10118     10117     10120     10123     10119     10117     10120     10121
     10119     10117     10120     10122     10119     10117     10120     10123
     10120     10123     10126     10127     10120     10123     10126     10128
     10120     10123     10126     10129     10121     10120     10123     10124
     10121     10120     10123     10125     10121     10120     10123     10126
     10122     10120     10123     10124     10122     10120     10123     10125
     10122     10120     10123     10126     10123     10126     10129     10130
     10123     10126     10129     10131     10123     10126     10129     10132
     10124     10123     10126     10127     10124     10123     10126     10128
     10124     10123     10126     10129     10125     10123     10126     10127
     10125     10123     10126     10128     10125     10123     10126     10129
     10126     10129     10132     10133     10126     10129     10132     10134
     10126     10129     10132     10135     10127     10126     10129     10130
     10127     10126     10129     10131     10127     10126     10129     10132
     10128     10126     10129     10130     10128     10126     10129     10131
     10128     10126     10129     10132     10129     10132     10135     10136
     10129     10132     10135     10137     10130     10129     10132     10133
     10130     10129     10132     10134     10130     10129     10132     10135
     10131     10129     10132     10133     10131     10129     10132     10134
     10131     10129     10132     10135     10132     10135     10137     10138
     10132     10135     10137     10139     10133     10132     10135     10136
     10133     10132     10135     10137     10134     10132     10135     10136
     10134     10132     10135     10137     10135     10137     10139     10140
     10135     10137     10139     10141     10135     10137     10139     10142
     10136     10135     10137     10138     10136     10135     10137     10139
     10137     10139     10142     10143     10137     10139     10142     10144
     10137     10139     10142     10145     10138     10137     10139     10140
     10138     10137     10139     10141     10138     10137     10139     10142
     10139     10142     10145     10146     10139     10142     10145     10147
     10139     10142     10145     10148     10140     10139     10142     10143
     10140     10139     10142     10144     10140     10139     10142     10145
     10141     10139     10142     10143     10141     10139     10142     10144
     10141     10139     10142     10145     10142     10145     10148     10149
     10142     10145     10148     10150     10142     10145     10148     10151
     10143     10142     10145     10146     10143     10142     10145     10147
     10143     10142     10145     10148     10144     10142     10145     10146
     10144     10142     10145     10147     10144     10142     10145     10148
     10145     10148     10151     10152     10145     10148     10151     10153
     10145     10148     10151     10154     10146     10145     10148     10149
     10146     10145     10148     10150     10146     10145     10148     10151
     10147     10145     10148     10149     10147     10145     10148     10150
     10147     10145     10148     10151     10148     10151     10154     10155
     10148     10151     10154     10156     10148     10151     10154     10157
     10149     10148     10151     10152     10149     10148     10151     10153
     10149     10148     10151     10154     10150     10148     10151     10152
     10150     10148     10151     10153     10150     10148     10151     10154
     10151     10154     10157     10158     10151     10154     10157     10159
     10151     10154     10157     10160     10152     10151     10154     10155
     10152     10151     10154     10156     10152     10151     10154     10157
     10153     10151     10154     10155     10153     10151     10154     10156
     10153     10151     10154     10157     10154     10157     10160     10161
     10154     10157     10160     10162     10154     10157     10160     10163
     10155     10154     10157     10158     10155     10154     10157     10159
     10155     10154     10157     10160     10156     10154     10157     10158
     10156     10154     10157     10159     10156     10154     10157     10160
     10158     10157     10160     10161     10158     10157     10160     10162
     10158     10157     10160     10163     10159     10157     10160     10161
     10159     10157     10160     10162     10159     10157     10160     10163
     10164     10167     10170     10171     10164     10167     10170     10172
     10164     10167     10170     10173     10165     10164     10167     10168
     10165     10164     10167     10169     10165     10164     10167     10170
     10166     10164     10167     10168     10166     10164     10167     10169
     10166     10164     10167     10170     10167     10170     10173     10174
     10167     10170     10173     10175     10167     10170     10173     10176
     10168     10167     10170     10171     10168     10167     10170     10172
     10168     10167     10170     10173     10169     10167     10170     10171
     10169     10167     10170     10172     10169     10167     10170     10173
     10170     10173     10176     10177     10170     10173     10176     10178
     10170     10173     10176     10179     10171     10170     10173     10174
     10171     10170     10173     10175     10171     10170     10173     10176
     10172     10170     10173     10174     10172     10170     10173     10175
     10172     10170     10173     10176     10173     10176     10179     10180
     10173     10176     10179     10181     10173     10176     10179     10182
     10174     10173     10176     10177     10174     10173     10176     10178
     10174     10173     10176     10179     10175     10173     10176     10177
     10175     10173     10176     10178     10175     10173     10176     10179
     10176     10179     10182     10183     10176     10179     10182     10184
     10176     10179     10182     10185     10177     10176     10179     10180
     10177     10176     10179     10181     10177     10176     10179     10182
     10178     10176     10179     10180     10178     10176     10179     10181
     10178     10176     10179     10182     10179     10182     10185     10186
     10179     10182     10185     10187     10179     10182     10185     10188
     10180     10179     10182     10183     10180     10179     10182     10184
     10180     10179     10182     10185     10181     10179     10182     10183
     10181     10179     10182     10184     10181     10179     10182     10185
     10182     10185     10188     10189     10182     10185     10188     10190
     10182     10185     10188     10191     10183     10182     10185     10186
     10183     10182     10185     10187     10183     10182     10185     10188
     10184     10182     10185     10186     10184     10182     10185     10187
     10184     10182     10185     10188     10185     10188     10191     10192
     10185     10188     10191     10193     10185     10188     10191     10194
     10186     10185     10188     10189     10186     10185     10188     10190
     10186     10185     10188     10191     10187     10185     10188     10189
     10187     10185     10188     10190     10187     10185     10188     10191
     10188     10191     10194     10195     10188     10191     10194     10196
     10188     10191     10194     10197     10189     10188     10191     10192
     10189     10188     10191     10193     10189     10188     10191     10194
     10190     10188     10191     10192     10190     10188     10191     10193
     10190     10188     10191     10194     10191     10194     10197     10198
     10191     10194     10197     10199     10191     10194     10197     10200
     10192     10191     10194     10195     10192     10191     10194     10196
     10192     10191     10194     10197     10193     10191     10194     10195
     10193     10191     10194     10196     10193     10191     10194     10197
     10194     10197     10200     10201     10194     10197     10200     10202
     10194     10197     10200     10203     10195     10194     10197     10198
     10195     10194     10197     10199     10195     10194     10197     10200
     10196     10194     10197     10198     10196     10194     10197     10199
     10196     10194     10197     10200     10197     10200     10203     10204
     10197     10200     10203     10205     10197     10200     10203     10206
     10198     10197     10200     10201     10198     10197     10200     10202
     10198     10197     10200     10203     10199     10197     10200     10201
     10199     10197     10200     10202     10199     10197     10200     10203
     10201     10200     10203     10204     10201     10200     10203     10205
     10201     10200     10203     10206     10202     10200     10203     10204
     10202     10200     10203     10205     10202     10200     10203     10206
     10207     10211     10213     10214     10207     10211     10213     10215
     10207     10211     10216     10217     10207     10211     10216     10218
     10207     10211     10216     10222     10208     10207     10211     10212
     10208     10207     10211     10213     10208     10207     10211     10216
     10209     10207     10211     10212     10209     10207     10211     10213
     10209     10207     10211     10216     10210     10207     10211     10212
     10210     10207     10211     10213     10210     10207     10211     10216
     10211     10216     10222     10219     10212     10211     10213     10214
     10212     10211     10213     10215     10212     10211     10216     10217
     10212     10211     10216     10218     10212     10211     10216     10222
     10213     10211     10216     10217     10213     10211     10216     10218
     10213     10211     10216     10222     10214     10213     10211     10216
     10215     10213     10211     10216     10216     10222     10219     10220
     10216     10222     10219     10221     10216     10222     10219     10223
     10217     10216     10222     10219     10218     10216     10222     10219
     10219     10223     10224     10225     10219     10223     10224     10226
     10219     10223     10224     10227     10220     10219     10223     10224
     10221     10219     10223     10224     10222     10219     10223     10224
     10223     10224     10227     10228     10223     10224     10227     10229
     10223     10224     10227     10235     10224     10227     10229     10230
     10224     10227     10235     10236     10224     10227     10235     10237
     10224     10227     10235     10238     10225     10224     10227     10228
     10225     10224     10227     10229     10225     10224     10227     10235
     10226     10224     10227     10228     10226     10224     10227     10229
     10226     10224     10227     10235     10227     10229     10230     10231
     10227     10229     10230     10232     10227     10235     10238     10239
     10228     10227     10229     10230     10228     10227     10235     10236
     10228     10227     10235     10237     10228     10227     10235     10238
     10229     10227     10235     10236     10229     10227     10235     10237
     10229     10227     10235     10238     10229     10230     10232     10233
     10229     10230     10232     10234     10229     10230     10232     10244
     10230     10229     10227     10235     10230     10232     10244     10245
     10230     10232     10244     10246     10230     10232     10244     10247
     10231     10230     10232     10233     10231     10230     10232     10234
     10231     10230     10232     10244     10232     10244     10247     10248
     10232     10244     10247     10249     10232     10244     10247     10250
     10233     10232     10244     10245     10233     10232     10244     10246
     10233     10232     10244     10247     10234     10232     10244     10245
     10234     10232     10244     10246     10234     10232     10244     10247
     10235     10238     10239     10240     10235     10238     10239     10241
     10236     10235     10238     10239     10237     10235     10238     10239
     10238     10239     10241     10242     10238     10239     10241     10243
     10238     10239     10241     10291     10239     10241     10291     10292
     10239     10241     10291     10293     10239     10241     10291     10294
     10240     10239     10241     10242     10240     10239     10241     10243
     10240     10239     10241     10291     10241     10291     10294     10295
     10241     10291     10294     10296     10241     10291     10294     10297
     10242     10241     10291     10292     10242     10241     10291     10293
     10242     10241     10291     10294     10243     10241     10291     10292
     10243     10241     10291     10293     10243     10241     10291     10294
     10244     10247     10250     10251     10244     10247     10250     10252
     10244     10247     10250     10253     10245     10244     10247     10248
     10245     10244     10247     10249     10245     10244     10247     10250
     10246     10244     10247     10248     10246     10244     10247     10249
     10246     10244     10247     10250     10247     10250     10253     10254
     10247     10250     10253     10255     10247     10250     10253     10256
     10248     10247     10250     10251     10248     10247     10250     10252
     10248     10247     10250     10253     10249     10247     10250     10251
     10249     10247     10250     10252     10249     10247     10250     10253
     10250     10253     10256     10257     10250     10253     10256     10258
     10250     10253     10256     10259     10251     10250     10253     10254
     10251     10250     10253     10255     10251     10250     10253     10256
     10252     10250     10253     10254     10252     10250     10253     10255
     10252     10250     10253     10256     10253     10256     10259     10260
     10253     10256     10259     10261     10253     10256     10259     10262
     10254     10253     10256     10257     10254     10253     10256     10258
     10254     10253     10256     10259     10255     10253     10256     10257
     10255     10253     10256     10258     10255     10253     10256     10259
     10256     10259     10262     10263     10256     10259     10262     10264
     10257     10256     10259     10260     10257     10256     10259     10261
     10257     10256     10259     10262     10258     10256     10259     10260
     10258     10256     10259     10261     10258     10256     10259     10262
     10259     10262     10264     10265     10259     10262     10264     10266
     10260     10259     10262     10263     10260     10259     10262     10264
     10261     10259     10262     10263     10261     10259     10262     10264
     10262     10264     10266     10267     10262     10264     10266     10268
     10262     10264     10266     10269     10263     10262     10264     10265
     10263     10262     10264     10266     10264     10266     10269     10270
     10264     10266     10269     10271     10264     10266     10269     10272
     10265     10264     10266     10267     10265     10264     10266     10268
     10265     10264     10266     10269     10266     10269     10272     10273
     10266     10269     10272     10274     10266     10269     10272     10275
     10267     10266     10269     10270     10267     10266     10269     10271
     10267     10266     10269     10272     10268     10266     10269     10270
     10268     10266     10269     10271     10268     10266     10269     10272
     10269     10272     10275     10276     10269     10272     10275     10277
     10269     10272     10275     10278     10270     10269     10272     10273
     10270     10269     10272     10274     10270     10269     10272     10275
     10271     10269     10272     10273     10271     10269     10272     10274
     10271     10269     10272     10275     10272     10275     10278     10279
     10272     10275     10278     10280     10272     10275     10278     10281
     10273     10272     10275     10276     10273     10272     10275     10277
     10273     10272     10275     10278     10274     10272     10275     10276
     10274     10272     10275     10277     10274     10272     10275     10278
     10275     10278     10281     10282     10275     10278     10281     10283
     10275     10278     10281     10284     10276     10275     10278     10279
     10276     10275     10278     10280     10276     10275     10278     10281
     10277     10275     10278     10279     10277     10275     10278     10280
     10277     10275     10278     10281     10278     10281     10284     10285
     10278     10281     10284     10286     10278     10281     10284     10287
     10279     10278     10281     10282     10279     10278     10281     10283
     10279     10278     10281     10284     10280     10278     10281     10282
     10280     10278     10281     10283     10280     10278     10281     10284
     10281     10284     10287     10288     10281     10284     10287     10289
     10281     10284     10287     10290     10282     10281     10284     10285
     10282     10281     10284     10286     10282     10281     10284     10287
     10283     10281     10284     10285     10283     10281     10284     10286
     10283     10281     10284     10287     10285     10284     10287     10288
     10285     10284     10287     10289     10285     10284     10287     10290
     10286     10284     10287     10288     10286     10284     10287     10289
     10286     10284     10287     10290     10291     10294     10297     10298
     10291     10294     10297     10299     10291     10294     10297     10300
     10292     10291     10294     10295     10292     10291     10294     10296
     10292     10291     10294     10297     10293     10291     10294     10295
     10293     10291     10294     10296     10293     10291     10294     10297
     10294     10297     10300     10301     10294     10297     10300     10302
     10294     10297     10300     10303     10295     10294     10297     10298
     10295     10294     10297     10299     10295     10294     10297     10300
     10296     10294     10297     10298     10296     10294     10297     10299
     10296     10294     10297     10300     10297     10300     10303     10304
     10297     10300     10303     10305     10297     10300     10303     10306
     10298     10297     10300     10301     10298     10297     10300     10302
     10298     10297     10300     10303     10299     10297     10300     10301
     10299     10297     10300     10302     10299     10297     10300     10303
     10300     10303     10306     10307     10300     10303     10306     10308
     10300     10303     10306     10309     10301     10300     10303     10304
     10301     10300     10303     10305     10301     10300     10303     10306
     10302     10300     10303     10304     10302     10300     10303     10305
     10302     10300     10303     10306     10303     10306     10309     10310
     10303     10306     10309     10311     10303     10306     10309     10312
     10304     10303     10306     10307     10304     10303     10306     10308
     10304     10303     10306     10309     10305     10303     10306     10307
     10305     10303     10306     10308     10305     10303     10306     10309
     10306     10309     10312     10313     10306     10309     10312     10314
     10306     10309     10312     10315     10307     10306     10309     10310
     10307     10306     10309     10311     10307     10306     10309     10312
     10308     10306     10309     10310     10308     10306     10309     10311
     10308     10306     10309     10312     10309     10312     10315     10316
     10309     10312     10315     10317     10309     10312     10315     10318
     10310     10309     10312     10313     10310     10309     10312     10314
     10310     10309     10312     10315     10311     10309     10312     10313
     10311     10309     10312     10314     10311     10309     10312     10315
     10312     10315     10318     10319     10312     10315     10318     10320
     10312     10315     10318     10321     10313     10312     10315     10316
     10313     10312     10315     10317     10313     10312     10315     10318
     10314     10312     10315     10316     10314     10312     10315     10317
     10314     10312     10315     10318     10315     10318     10321     10322
     10315     10318     10321     10323     10315     10318     10321     10324
     10316     10315     10318     10319     10316     10315     10318     10320
     10316     10315     10318     10321     10317     10315     10318     10319
     10317     10315     10318     10320     10317     10315     10318     10321
     10318     10321     10324     10325     10318     10321     10324     10326
     10318     10321     10324     10327     10319     10318     10321     10322
     10319     10318     10321     10323     10319     10318     10321     10324
     10320     10318     10321     10322     10320     10318     10321     10323
     10320     10318     10321     10324     10321     10324     10327     10328
     10321     10324     10327     10329     10321     10324     10327     10330
     10322     10321     10324     10325     10322     10321     10324     10326
     10322     10321     10324     10327     10323     10321     10324     10325
     10323     10321     10324     10326     10323     10321     10324     10327
     10324     10327     10330     10331     10324     10327     10330     10332
     10324     10327     10330     10333     10325     10324     10327     10328
     10325     10324     10327     10329     10325     10324     10327     10330
     10326     10324     10327     10328     10326     10324     10327     10329
     10326     10324     10327     10330     10328     10327     10330     10331
     10328     10327     10330     10332     10328     10327     10330     10333
     10329     10327     10330     10331     10329     10327     10330     10332
     10329     10327     10330     10333     10334     10335     10350     10351
     10334     10335     10350     10352     10334     10335     10350     10356
     10335     10334     10338     10339     10335     10334     10338     10340
     10335     10334     10338     10341     10335     10334     10342     10343
     10335     10334     10342     10344     10335     10334     10342     10345
     10335     10334     10346     10347     10335     10334     10346     10348
     10335     10334     10346     10349     10335     10350     10356     10353
     10336     10335     10334     10338     10336     10335     10334     10342
     10336     10335     10334     10346     10336     10335     10350     10351
     10336     10335     10350     10352     10336     10335     10350     10356
     10337     10335     10334     10338     10337     10335     10334     10342
     10337     10335     10334     10346     10337     10335     10350     10351
     10337     10335     10350     10352     10337     10335     10350     10356
     10338     10334     10335     10350     10338     10334     10342     10343
     10338     10334     10342     10344     10338     10334     10342     10345
     10338     10334     10346     10347     10338     10334     10346     10348
     10338     10334     10346     10349     10339     10338     10334     10342
     10339     10338     10334     10346     10340     10338     10334     10342
     10340     10338     10334     10346     10341     10338     10334     10342
     10341     10338     10334     10346     10342     10334     10335     10350
     10342     10334     10346     10347     10342     10334     10346     10348
     10342     10334     10346     10349     10343     10342     10334     10346
     10344     10342     10334     10346     10345     10342     10334     10346
     10346     10334     10335     10350     10350     10356     10353     10354
     10350     10356     10353     10355     10350     10356     10353     10357
     10351     10350     10356     10353     10352     10350     10356     10353
     10353     10357     10358     10359     10353     10357     10358     10360
     10353     10357     10358     10361     10354     10353     10357     10358
     10355     10353     10357     10358     10356     10353     10357     10358
     10357     10358     10361     10362     10357     10358     10361     10363
     10357     10358     10361     10369     10358     10361     10363     10364
     10358     10361     10369     10370     10358     10361     10369     10371
     10358     10361     10369     10372     10359     10358     10361     10362
     10359     10358     10361     10363     10359     10358     10361     10369
     10360     10358     10361     10362     10360     10358     10361     10363
     10360     10358     10361     10369     10361     10363     10364     10365
     10361     10363     10364     10366     10361     10369     10372     10373
     10362     10361     10363     10364     10362     10361     10369     10370
     10362     10361     10369     10371     10362     10361     10369     10372
     10363     10361     10369     10370     10363     10361     10369     10371
     10363     10361     10369     10372     10363     10364     10366     10367
     10363     10364     10366     10368     10363     10364     10366     10378
     10364     10363     10361     10369     10364     10366     10378     10379
     10364     10366     10378     10380     10364     10366     10378     10381
     10365     10364     10366     10367     10365     10364     10366     10368
     10365     10364     10366     10378     10366     10378     10381     10382
     10366     10378     10381     10383     10366     10378     10381     10384
     10367     10366     10378     10379     10367     10366     10378     10380
     10367     10366     10378     10381     10368     10366     10378     10379
     10368     10366     10378     10380     10368     10366     10378     10381
     10369     10372     10373     10374     10369     10372     10373     10375
     10370     10369     10372     10373     10371     10369     10372     10373
     10372     10373     10375     10376     10372     10373     10375     10377
     10372     10373     10375     10425     10373     10375     10425     10426
     10373     10375     10425     10427     10373     10375     10425     10428
     10374     10373     10375     10376     10374     10373     10375     10377
     10374     10373     10375     10425     10375     10425     10428     10429
     10375     10425     10428     10430     10375     10425     10428     10431
     10376     10375     10425     10426     10376     10375     10425     10427
     10376     10375     10425     10428     10377     10375     10425     10426
     10377     10375     10425     10427     10377     10375     10425     10428
     10378     10381     10384     10385     10378     10381     10384     10386
     10378     10381     10384     10387     10379     10378     10381     10382
     10379     10378     10381     10383     10379     10378     10381     10384
     10380     10378     10381     10382     10380     10378     10381     10383
     10380     10378     10381     10384     10381     10384     10387     10388
     10381     10384     10387     10389     10381     10384     10387     10390
     10382     10381     10384     10385     10382     10381     10384     10386
     10382     10381     10384     10387     10383     10381     10384     10385
     10383     10381     10384     10386     10383     10381     10384     10387
     10384     10387     10390     10391     10384     10387     10390     10392
     10384     10387     10390     10393     10385     10384     10387     10388
     10385     10384     10387     10389     10385     10384     10387     10390
     10386     10384     10387     10388     10386     10384     10387     10389
     10386     10384     10387     10390     10387     10390     10393     10394
     10387     10390     10393     10395     10387     10390     10393     10396
     10388     10387     10390     10391     10388     10387     10390     10392
     10388     10387     10390     10393     10389     10387     10390     10391
     10389     10387     10390     10392     10389     10387     10390     10393
     10390     10393     10396     10397     10390     10393     10396     10398
     10391     10390     10393     10394     10391     10390     10393     10395
     10391     10390     10393     10396     10392     10390     10393     10394
     10392     10390     10393     10395     10392     10390     10393     10396
     10393     10396     10398     10399     10393     10396     10398     10400
     10394     10393     10396     10397     10394     10393     10396     10398
     10395     10393     10396     10397     10395     10393     10396     10398
     10396     10398     10400     10401     10396     10398     10400     10402
     10396     10398     10400     10403     10397     10396     10398     10399
     10397     10396     10398     10400     10398     10400     10403     10404
     10398     10400     10403     10405     10398     10400     10403     10406
     10399     10398     10400     10401     10399     10398     10400     10402
     10399     10398     10400     10403     10400     10403     10406     10407
     10400     10403     10406     10408     10400     10403     10406     10409
     10401     10400     10403     10404     10401     10400     10403     10405
     10401     10400     10403     10406     10402     10400     10403     10404
     10402     10400     10403     10405     10402     10400     10403     10406
     10403     10406     10409     10410     10403     10406     10409     10411
     10403     10406     10409     10412     10404     10403     10406     10407
     10404     10403     10406     10408     10404     10403     10406     10409
     10405     10403     10406     10407     10405     10403     10406     10408
     10405     10403     10406     10409     10406     10409     10412     10413
     10406     10409     10412     10414     10406     10409     10412     10415
     10407     10406     10409     10410     10407     10406     10409     10411
     10407     10406     10409     10412     10408     10406     10409     10410
     10408     10406     10409     10411     10408     10406     10409     10412
     10409     10412     10415     10416     10409     10412     10415     10417
     10409     10412     10415     10418     10410     10409     10412     10413
     10410     10409     10412     10414     10410     10409     10412     10415
     10411     10409     10412     10413     10411     10409     10412     10414
     10411     10409     10412     10415     10412     10415     10418     10419
     10412     10415     10418     10420     10412     10415     10418     10421
     10413     10412     10415     10416     10413     10412     10415     10417
     10413     10412     10415     10418     10414     10412     10415     10416
     10414     10412     10415     10417     10414     10412     10415     10418
     10415     10418     10421     10422     10415     10418     10421     10423
     10415     10418     10421     10424     10416     10415     10418     10419
     10416     10415     10418     10420     10416     10415     10418     10421
     10417     10415     10418     10419     10417     10415     10418     10420
     10417     10415     10418     10421     10419     10418     10421     10422
     10419     10418     10421     10423     10419     10418     10421     10424
     10420     10418     10421     10422     10420     10418     10421     10423
     10420     10418     10421     10424     10425     10428     10431     10432
     10425     10428     10431     10433     10425     10428     10431     10434
     10426     10425     10428     10429     10426     10425     10428     10430
     10426     10425     10428     10431     10427     10425     10428     10429
     10427     10425     10428     10430     10427     10425     10428     10431
     10428     10431     10434     10435     10428     10431     10434     10436
     10428     10431     10434     10437     10429     10428     10431     10432
     10429     10428     10431     10433     10429     10428     10431     10434
     10430     10428     10431     10432     10430     10428     10431     10433
     10430     10428     10431     10434     10431     10434     10437     10438
     10431     10434     10437     10439     10431     10434     10437     10440
     10432     10431     10434     10435     10432     10431     10434     10436
     10432     10431     10434     10437     10433     10431     10434     10435
     10433     10431     10434     10436     10433     10431     10434     10437
     10434     10437     10440     10441     10434     10437     10440     10442
     10434     10437     10440     10443     10435     10434     10437     10438
     10435     10434     10437     10439     10435     10434     10437     10440
     10436     10434     10437     10438     10436     10434     10437     10439
     10436     10434     10437     10440     10437     10440     10443     10444
     10437     10440     10443     10445     10437     10440     10443     10446
     10438     10437     10440     10441     10438     10437     10440     10442
     10438     10437     10440     10443     10439     10437     10440     10441
     10439     10437     10440     10442     10439     10437     10440     10443
     10440     10443     10446     10447     10440     10443     10446     10448
     10440     10443     10446     10449     10441     10440     10443     10444
     10441     10440     10443     10445     10441     10440     10443     10446
     10442     10440     10443     10444     10442     10440     10443     10445
     10442     10440     10443     10446     10443     10446     10449     10450
     10443     10446     10449     10451     10443     10446     10449     10452
     10444     10443     10446     10447     10444     10443     10446     10448
     10444     10443     10446     10449     10445     10443     10446     10447
     10445     10443     10446     10448     10445     10443     10446     10449
     10446     10449     10452     10453     10446     10449     10452     10454
     10446     10449     10452     10455     10447     10446     10449     10450
     10447     10446     10449     10451     10447     10446     10449     10452
     10448     10446     10449     10450     10448     10446     10449     10451
     10448     10446     10449     10452     10449     10452     10455     10456
     10449     10452     10455     10457     10449     10452     10455     10458
     10450     10449     10452     10453     10450     10449     10452     10454
     10450     10449     10452     10455     10451     10449     10452     10453
     10451     10449     10452     10454     10451     10449     10452     10455
     10452     10455     10458     10459     10452     10455     10458     10460
     10452     10455     10458     10461     10453     10452     10455     10456
     10453     10452     10455     10457     10453     10452     10455     10458
     10454     10452     10455     10456     10454     10452     10455     10457
     10454     10452     10455     10458     10455     10458     10461     10462
     10455     10458     10461     10463     10455     10458     10461     10464
     10456     10455     10458     10459     10456     10455     10458     10460
     10456     10455     10458     10461     10457     10455     10458     10459
     10457     10455     10458     10460     10457     10455     10458     10461
     10458     10461     10464     10465     10458     10461     10464     10466
     10458     10461     10464     10467     10459     10458     10461     10462
     10459     10458     10461     10463     10459     10458     10461     10464
     10460     10458     10461     10462     10460     10458     10461     10463
     10460     10458     10461     10464     10462     10461     10464     10465
     10462     10461     10464     10466     10462     10461     10464     10467
     10463     10461     10464     10465     10463     10461     10464     10466
     10463     10461     10464     10467     10468     10472     10474     10475
     10468     10472     10474     10476     10468     10472     10477     10478
     10468     10472     10477     10479     10468     10472     10477     10483
     10469     10468     10472     10473     10469     10468     10472     10474
     10469     10468     10472     10477     10470     10468     10472     10473
     10470     10468     10472     10474     10470     10468     10472     10477
     10471     10468     10472     10473     10471     10468     10472     10474
     10471     10468     10472     10477     10472     10477     10483     10480
     10473     10472     10474     10475     10473     10472     10474     10476
     10473     10472     10477     10478     10473     10472     10477     10479
     10473     10472     10477     10483     10474     10472     10477     10478
     10474     10472     10477     10479     10474     10472     10477     10483
     10475     10474     10472     10477     10476     10474     10472     10477
     10477     10483     10480     10481     10477     10483     10480     10482
     10477     10483     10480     10484     10478     10477     10483     10480
     10479     10477     10483     10480     10480     10484     10485     10486
     10480     10484     10485     10487     10480     10484     10485     10488
     10481     10480     10484     10485     10482     10480     10484     10485
     10483     10480     10484     10485     10484     10485     10488     10489
     10484     10485     10488     10490     10484     10485     10488     10496
     10485     10488     10490     10491     10485     10488     10496     10497
     10485     10488     10496     10498     10485     10488     10496     10499
     10486     10485     10488     10489     10486     10485     10488     10490
     10486     10485     10488     10496     10487     10485     10488     10489
     10487     10485     10488     10490     10487     10485     10488     10496
     10488     10490     10491     10492     10488     10490     10491     10493
     10488     10496     10499     10500     10489     10488     10490     10491
     10489     10488     10496     10497     10489     10488     10496     10498
     10489     10488     10496     10499     10490     10488     10496     10497
     10490     10488     10496     10498     10490     10488     10496     10499
     10490     10491     10493     10494     10490     10491     10493     10495
     10490     10491     10493     10505     10491     10490     10488     10496
     10491     10493     10505     10506     10491     10493     10505     10507
     10491     10493     10505     10508     10492     10491     10493     10494
     10492     10491     10493     10495     10492     10491     10493     10505
     10493     10505     10508     10509     10493     10505     10508     10510
     10493     10505     10508     10511     10494     10493     10505     10506
     10494     10493     10505     10507     10494     10493     10505     10508
     10495     10493     10505     10506     10495     10493     10505     10507
     10495     10493     10505     10508     10496     10499     10500     10501
     10496     10499     10500     10502     10497     10496     10499     10500
     10498     10496     10499     10500     10499     10500     10502     10503
     10499     10500     10502     10504     10499     10500     10502     10552
     10500     10502     10552     10553     10500     10502     10552     10554
     10500     10502     10552     10555     10501     10500     10502     10503
     10501     10500     10502     10504     10501     10500     10502     10552
     10502     10552     10555     10556     10502     10552     10555     10557
     10502     10552     10555     10558     10503     10502     10552     10553
     10503     10502     10552     10554     10503     10502     10552     10555
     10504     10502     10552     10553     10504     10502     10552     10554
     10504     10502     10552     10555     10505     10508     10511     10512
     10505     10508     10511     10513     10505     10508     10511     10514
     10506     10505     10508     10509     10506     10505     10508     10510
     10506     10505     10508     10511     10507     10505     10508     10509
     10507     10505     10508     10510     10507     10505     10508     10511
     10508     10511     10514     10515     10508     10511     10514     10516
     10508     10511     10514     10517     10509     10508     10511     10512
     10509     10508     10511     10513     10509     10508     10511     10514
     10510     10508     10511     10512     10510     10508     10511     10513
     10510     10508     10511     10514     10511     10514     10517     10518
     10511     10514     10517     10519     10511     10514     10517     10520
     10512     10511     10514     10515     10512     10511     10514     10516
     10512     10511     10514     10517     10513     10511     10514     10515
     10513     10511     10514     10516     10513     10511     10514     10517
     10514     10517     10520     10521     10514     10517     10520     10522
     10514     10517     10520     10523     10515     10514     10517     10518
     10515     10514     10517     10519     10515     10514     10517     10520
     10516     10514     10517     10518     10516     10514     10517     10519
     10516     10514     10517     10520     10517     10520     10523     10524
     10517     10520     10523     10525     10518     10517     10520     10521
     10518     10517     10520     10522     10518     10517     10520     10523
     10519     10517     10520     10521     10519     10517     10520     10522
     10519     10517     10520     10523     10520     10523     10525     10526
     10520     10523     10525     10527     10521     10520     10523     10524
     10521     10520     10523     10525     10522     10520     10523     10524
     10522     10520     10523     10525     10523     10525     10527     10528
     10523     10525     10527     10529     10523     10525     10527     10530
     10524     10523     10525     10526     10524     10523     10525     10527
     10525     10527     10530     10531     10525     10527     10530     10532
     10525     10527     10530     10533     10526     10525     10527     10528
     10526     10525     10527     10529     10526     10525     10527     10530
     10527     10530     10533     10534     10527     10530     10533     10535
     10527     10530     10533     10536     10528     10527     10530     10531
     10528     10527     10530     10532     10528     10527     10530     10533
     10529     10527     10530     10531     10529     10527     10530     10532
     10529     10527     10530     10533     10530     10533     10536     10537
     10530     10533     10536     10538     10530     10533     10536     10539
     10531     10530     10533     10534     10531     10530     10533     10535
     10531     10530     10533     10536     10532     10530     10533     10534
     10532     10530     10533     10535     10532     10530     10533     10536
     10533     10536     10539     10540     10533     10536     10539     10541
     10533     10536     10539     10542     10534     10533     10536     10537
     10534     10533     10536     10538     10534     10533     10536     10539
     10535     10533     10536     10537     10535     10533     10536     10538
     10535     10533     10536     10539     10536     10539     10542     10543
     10536     10539     10542     10544     10536     10539     10542     10545
     10537     10536     10539     10540     10537     10536     10539     10541
     10537     10536     10539     10542     10538     10536     10539     10540
     10538     10536     10539     10541     10538     10536     10539     10542
     10539     10542     10545     10546     10539     10542     10545     10547
     10539     10542     10545     10548     10540     10539     10542     10543
     10540     10539     10542     10544     10540     10539     10542     10545
     10541     10539     10542     10543     10541     10539     10542     10544
     10541     10539     10542     10545     10542     10545     10548     10549
     10542     10545     10548     10550     10542     10545     10548     10551
     10543     10542     10545     10546     10543     10542     10545     10547
     10543     10542     10545     10548     10544     10542     10545     10546
     10544     10542     10545     10547     10544     10542     10545     10548
     10546     10545     10548     10549     10546     10545     10548     10550
     10546     10545     10548     10551     10547     10545     10548     10549
     10547     10545     10548     10550     10547     10545     10548     10551
     10552     10555     10558     10559     10552     10555     10558     10560
     10552     10555     10558     10561     10553     10552     10555     10556
     10553     10552     10555     10557     10553     10552     10555     10558
     10554     10552     10555     10556     10554     10552     10555     10557
     10554     10552     10555     10558     10555     10558     10561     10562
     10555     10558     10561     10563     10555     10558     10561     10564
     10556     10555     10558     10559     10556     10555     10558     10560
     10556     10555     10558     10561     10557     10555     10558     10559
     10557     10555     10558     10560     10557     10555     10558     10561
     10558     10561     10564     10565     10558     10561     10564     10566
     10558     10561     10564     10567     10559     10558     10561     10562
     10559     10558     10561     10563     10559     10558     10561     10564
     10560     10558     10561     10562     10560     10558     10561     10563
     10560     10558     10561     10564     10561     10564     10567     10568
     10561     10564     10567     10569     10561     10564     10567     10570
     10562     10561     10564     10565     10562     10561     10564     10566
     10562     10561     10564     10567     10563     10561     10564     10565
     10563     10561     10564     10566     10563     10561     10564     10567
     10564     10567     10570     10571     10564     10567     10570     10572
     10564     10567     10570     10573     10565     10564     10567     10568
     10565     10564     10567     10569     10565     10564     10567     10570
     10566     10564     10567     10568     10566     10564     10567     10569
     10566     10564     10567     10570     10567     10570     10573     10574
     10567     10570     10573     10575     10567     10570     10573     10576
     10568     10567     10570     10571     10568     10567     10570     10572
     10568     10567     10570     10573     10569     10567     10570     10571
     10569     10567     10570     10572     10569     10567     10570     10573
     10570     10573     10576     10577     10570     10573     10576     10578
     10570     10573     10576     10579     10571     10570     10573     10574
     10571     10570     10573     10575     10571     10570     10573     10576
     10572     10570     10573     10574     10572     10570     10573     10575
     10572     10570     10573     10576     10573     10576     10579     10580
     10573     10576     10579     10581     10573     10576     10579     10582
     10574     10573     10576     10577     10574     10573     10576     10578
     10574     10573     10576     10579     10575     10573     10576     10577
     10575     10573     10576     10578     10575     10573     10576     10579
     10576     10579     10582     10583     10576     10579     10582     10584
     10576     10579     10582     10585     10577     10576     10579     10580
     10577     10576     10579     10581     10577     10576     10579     10582
     10578     10576     10579     10580     10578     10576     10579     10581
     10578     10576     10579     10582     10579     10582     10585     10586
     10579     10582     10585     10587     10579     10582     10585     10588
     10580     10579     10582     10583     10580     10579     10582     10584
     10580     10579     10582     10585     10581     10579     10582     10583
     10581     10579     10582     10584     10581     10579     10582     10585
     10582     10585     10588     10589     10582     10585     10588     10590
     10582     10585     10588     10591     10583     10582     10585     10586
     10583     10582     10585     10587     10583     10582     10585     10588
     10584     10582     10585     10586     10584     10582     10585     10587
     10584     10582     10585     10588     10585     10588     10591     10592
     10585     10588     10591     10593     10585     10588     10591     10594
     10586     10585     10588     10589     10586     10585     10588     10590
     10586     10585     10588     10591     10587     10585     10588     10589
     10587     10585     10588     10590     10587     10585     10588     10591
     10589     10588     10591     10592     10589     10588     10591     10593
     10589     10588     10591     10594     10590     10588     10591     10592
     10590     10588     10591     10593     10590     10588     10591     10594
     10595     10599     10601     10602     10595     10599     10601     10603
     10595     10599     10604     10605     10595     10599     10604     10606
     10595     10599     10604     10610     10596     10595     10599     10600
     10596     10595     10599     10601     10596     10595     10599     10604
     10597     10595     10599     10600     10597     10595     10599     10601
     10597     10595     10599     10604     10598     10595     10599     10600
     10598     10595     10599     10601     10598     10595     10599     10604
     10599     10604     10610     10607     10600     10599     10601     10602
     10600     10599     10601     10603     10600     10599     10604     10605
     10600     10599     10604     10606     10600     10599     10604     10610
     10601     10599     10604     10605     10601     10599     10604     10606
     10601     10599     10604     10610     10602     10601     10599     10604
     10603     10601     10599     10604     10604     10610     10607     10608
     10604     10610     10607     10609     10604     10610     10607     10611
     10605     10604     10610     10607     10606     10604     10610     10607
     10607     10611     10612     10613     10607     10611     10612     10614
     10607     10611     10612     10615     10608     10607     10611     10612
     10609     10607     10611     10612     10610     10607     10611     10612
     10611     10612     10615     10616     10611     10612     10615     10617
     10611     10612     10615     10623     10612     10615     10617     10618
     10612     10615     10623     10624     10612     10615     10623     10625
     10612     10615     10623     10626     10613     10612     10615     10616
     10613     10612     10615     10617     10613     10612     10615     10623
     10614     10612     10615     10616     10614     10612     10615     10617
     10614     10612     10615     10623     10615     10617     10618     10619
     10615     10617     10618     10620     10615     10623     10626     10627
     10616     10615     10617     10618     10616     10615     10623     10624
     10616     10615     10623     10625     10616     10615     10623     10626
     10617     10615     10623     10624     10617     10615     10623     10625
     10617     10615     10623     10626     10617     10618     10620     10621
     10617     10618     10620     10622     10617     10618     10620     10632
     10618     10617     10615     10623     10618     10620     10632     10633
     10618     10620     10632     10634     10618     10620     10632     10635
     10619     10618     10620     10621     10619     10618     10620     10622
     10619     10618     10620     10632     10620     10632     10635     10636
     10620     10632     10635     10637     10620     10632     10635     10638
     10621     10620     10632     10633     10621     10620     10632     10634
     10621     10620     10632     10635     10622     10620     10632     10633
     10622     10620     10632     10634     10622     10620     10632     10635
     10623     10626     10627     10628     10623     10626     10627     10629
     10624     10623     10626     10627     10625     10623     10626     10627
     10626     10627     10629     10630     10626     10627     10629     10631
     10626     10627     10629     10679     10627     10629     10679     10680
     10627     10629     10679     10681     10627     10629     10679     10682
     10628     10627     10629     10630     10628     10627     10629     10631
     10628     10627     10629     10679     10629     10679     10682     10683
     10629     10679     10682     10684     10629     10679     10682     10685
     10630     10629     10679     10680     10630     10629     10679     10681
     10630     10629     10679     10682     10631     10629     10679     10680
     10631     10629     10679     10681     10631     10629     10679     10682
     10632     10635     10638     10639     10632     10635     10638     10640
     10632     10635     10638     10641     10633     10632     10635     10636
     10633     10632     10635     10637     10633     10632     10635     10638
     10634     10632     10635     10636     10634     10632     10635     10637
     10634     10632     10635     10638     10635     10638     10641     10642
     10635     10638     10641     10643     10635     10638     10641     10644
     10636     10635     10638     10639     10636     10635     10638     10640
     10636     10635     10638     10641     10637     10635     10638     10639
     10637     10635     10638     10640     10637     10635     10638     10641
     10638     10641     10644     10645     10638     10641     10644     10646
     10638     10641     10644     10647     10639     10638     10641     10642
     10639     10638     10641     10643     10639     10638     10641     10644
     10640     10638     10641     10642     10640     10638     10641     10643
     10640     10638     10641     10644     10641     10644     10647     10648
     10641     10644     10647     10649     10641     10644     10647     10650
     10642     10641     10644     10645     10642     10641     10644     10646
     10642     10641     10644     10647     10643     10641     10644     10645
     10643     10641     10644     10646     10643     10641     10644     10647
     10644     10647     10650     10651     10644     10647     10650     10652
     10645     10644     10647     10648     10645     10644     10647     10649
     10645     10644     10647     10650     10646     10644     10647     10648
     10646     10644     10647     10649     10646     10644     10647     10650
     10647     10650     10652     10653     10647     10650     10652     10654
     10648     10647     10650     10651     10648     10647     10650     10652
     10649     10647     10650     10651     10649     10647     10650     10652
     10650     10652     10654     10655     10650     10652     10654     10656
     10650     10652     10654     10657     10651     10650     10652     10653
     10651     10650     10652     10654     10652     10654     10657     10658
     10652     10654     10657     10659     10652     10654     10657     10660
     10653     10652     10654     10655     10653     10652     10654     10656
     10653     10652     10654     10657     10654     10657     10660     10661
     10654     10657     10660     10662     10654     10657     10660     10663
     10655     10654     10657     10658     10655     10654     10657     10659
     10655     10654     10657     10660     10656     10654     10657     10658
     10656     10654     10657     10659     10656     10654     10657     10660
     10657     10660     10663     10664     10657     10660     10663     10665
     10657     10660     10663     10666     10658     10657     10660     10661
     10658     10657     10660     10662     10658     10657     10660     10663
     10659     10657     10660     10661     10659     10657     10660     10662
     10659     10657     10660     10663     10660     10663     10666     10667
     10660     10663     10666     10668     10660     10663     10666     10669
     10661     10660     10663     10664     10661     10660     10663     10665
     10661     10660     10663     10666     10662     10660     10663     10664
     10662     10660     10663     10665     10662     10660     10663     10666
     10663     10666     10669     10670     10663     10666     10669     10671
     10663     10666     10669     10672     10664     10663     10666     10667
     10664     10663     10666     10668     10664     10663     10666     10669
     10665     10663     10666     10667     10665     10663     10666     10668
     10665     10663     10666     10669     10666     10669     10672     10673
     10666     10669     10672     10674     10666     10669     10672     10675
     10667     10666     10669     10670     10667     10666     10669     10671
     10667     10666     10669     10672     10668     10666     10669     10670
     10668     10666     10669     10671     10668     10666     10669     10672
     10669     10672     10675     10676     10669     10672     10675     10677
     10669     10672     10675     10678     10670     10669     10672     10673
     10670     10669     10672     10674     10670     10669     10672     10675
     10671     10669     10672     10673     10671     10669     10672     10674
     10671     10669     10672     10675     10673     10672     10675     10676
     10673     10672     10675     10677     10673     10672     10675     10678
     10674     10672     10675     10676     10674     10672     10675     10677
     10674     10672     10675     10678     10679     10682     10685     10686
     10679     10682     10685     10687     10679     10682     10685     10688
     10680     10679     10682     10683     10680     10679     10682     10684
     10680     10679     10682     10685     10681     10679     10682     10683
     10681     10679     10682     10684     10681     10679     10682     10685
     10682     10685     10688     10689     10682     10685     10688     10690
     10682     10685     10688     10691     10683     10682     10685     10686
     10683     10682     10685     10687     10683     10682     10685     10688
     10684     10682     10685     10686     10684     10682     10685     10687
     10684     10682     10685     10688     10685     10688     10691     10692
     10685     10688     10691     10693     10685     10688     10691     10694
     10686     10685     10688     10689     10686     10685     10688     10690
     10686     10685     10688     10691     10687     10685     10688     10689
     10687     10685     10688     10690     10687     10685     10688     10691
     10688     10691     10694     10695     10688     10691     10694     10696
     10688     10691     10694     10697     10689     10688     10691     10692
     10689     10688     10691     10693     10689     10688     10691     10694
     10690     10688     10691     10692     10690     10688     10691     10693
     10690     10688     10691     10694     10691     10694     10697     10698
     10691     10694     10697     10699     10691     10694     10697     10700
     10692     10691     10694     10695     10692     10691     10694     10696
     10692     10691     10694     10697     10693     10691     10694     10695
     10693     10691     10694     10696     10693     10691     10694     10697
     10694     10697     10700     10701     10694     10697     10700     10702
     10694     10697     10700     10703     10695     10694     10697     10698
     10695     10694     10697     10699     10695     10694     10697     10700
     10696     10694     10697     10698     10696     10694     10697     10699
     10696     10694     10697     10700     10697     10700     10703     10704
     10697     10700     10703     10705     10697     10700     10703     10706
     10698     10697     10700     10701     10698     10697     10700     10702
     10698     10697     10700     10703     10699     10697     10700     10701
     10699     10697     10700     10702     10699     10697     10700     10703
     10700     10703     10706     10707     10700     10703     10706     10708
     10700     10703     10706     10709     10701     10700     10703     10704
     10701     10700     10703     10705     10701     10700     10703     10706
     10702     10700     10703     10704     10702     10700     10703     10705
     10702     10700     10703     10706     10703     10706     10709     10710
     10703     10706     10709     10711     10703     10706     10709     10712
     10704     10703     10706     10707     10704     10703     10706     10708
     10704     10703     10706     10709     10705     10703     10706     10707
     10705     10703     10706     10708     10705     10703     10706     10709
     10706     10709     10712     10713     10706     10709     10712     10714
     10706     10709     10712     10715     10707     10706     10709     10710
     10707     10706     10709     10711     10707     10706     10709     10712
     10708     10706     10709     10710     10708     10706     10709     10711
     10708     10706     10709     10712     10709     10712     10715     10716
     10709     10712     10715     10717     10709     10712     10715     10718
     10710     10709     10712     10713     10710     10709     10712     10714
     10710     10709     10712     10715     10711     10709     10712     10713
     10711     10709     10712     10714     10711     10709     10712     10715
     10712     10715     10718     10719     10712     10715     10718     10720
     10712     10715     10718     10721     10713     10712     10715     10716
     10713     10712     10715     10717     10713     10712     10715     10718
     10714     10712     10715     10716     10714     10712     10715     10717
     10714     10712     10715     10718     10716     10715     10718     10719
     10716     10715     10718     10720     10716     10715     10718     10721
     10717     10715     10718     10719     10717     10715     10718     10720
     10717     10715     10718     10721     10722     10723     10738     10739
     10722     10723     10738     10740     10722     10723     10738     10744
     10723     10722     10726     10727     10723     10722     10726     10728
     10723     10722     10726     10729     10723     10722     10730     10731
     10723     10722     10730     10732     10723     10722     10730     10733
     10723     10722     10734     10735     10723     10722     10734     10736
     10723     10722     10734     10737     10723     10738     10744     10741
     10724     10723     10722     10726     10724     10723     10722     10730
     10724     10723     10722     10734     10724     10723     10738     10739
     10724     10723     10738     10740     10724     10723     10738     10744
     10725     10723     10722     10726     10725     10723     10722     10730
     10725     10723     10722     10734     10725     10723     10738     10739
     10725     10723     10738     10740     10725     10723     10738     10744
     10726     10722     10723     10738     10726     10722     10730     10731
     10726     10722     10730     10732     10726     10722     10730     10733
     10726     10722     10734     10735     10726     10722     10734     10736
     10726     10722     10734     10737     10727     10726     10722     10730
     10727     10726     10722     10734     10728     10726     10722     10730
     10728     10726     10722     10734     10729     10726     10722     10730
     10729     10726     10722     10734     10730     10722     10723     10738
     10730     10722     10734     10735     10730     10722     10734     10736
     10730     10722     10734     10737     10731     10730     10722     10734
     10732     10730     10722     10734     10733     10730     10722     10734
     10734     10722     10723     10738     10738     10744     10741     10742
     10738     10744     10741     10743     10738     10744     10741     10745
     10739     10738     10744     10741     10740     10738     10744     10741
     10741     10745     10746     10747     10741     10745     10746     10748
     10741     10745     10746     10749     10742     10741     10745     10746
     10743     10741     10745     10746     10744     10741     10745     10746
     10745     10746     10749     10750     10745     10746     10749     10751
     10745     10746     10749     10757     10746     10749     10751     10752
     10746     10749     10757     10758     10746     10749     10757     10759
     10746     10749     10757     10760     10747     10746     10749     10750
     10747     10746     10749     10751     10747     10746     10749     10757
     10748     10746     10749     10750     10748     10746     10749     10751
     10748     10746     10749     10757     10749     10751     10752     10753
     10749     10751     10752     10754     10749     10757     10760     10761
     10750     10749     10751     10752     10750     10749     10757     10758
     10750     10749     10757     10759     10750     10749     10757     10760
     10751     10749     10757     10758     10751     10749     10757     10759
     10751     10749     10757     10760     10751     10752     10754     10755
     10751     10752     10754     10756     10751     10752     10754     10766
     10752     10751     10749     10757     10752     10754     10766     10767
     10752     10754     10766     10768     10752     10754     10766     10769
     10753     10752     10754     10755     10753     10752     10754     10756
     10753     10752     10754     10766     10754     10766     10769     10770
     10754     10766     10769     10771     10754     10766     10769     10772
     10755     10754     10766     10767     10755     10754     10766     10768
     10755     10754     10766     10769     10756     10754     10766     10767
     10756     10754     10766     10768     10756     10754     10766     10769
     10757     10760     10761     10762     10757     10760     10761     10763
     10758     10757     10760     10761     10759     10757     10760     10761
     10760     10761     10763     10764     10760     10761     10763     10765
     10760     10761     10763     10813     10761     10763     10813     10814
     10761     10763     10813     10815     10761     10763     10813     10816
     10762     10761     10763     10764     10762     10761     10763     10765
     10762     10761     10763     10813     10763     10813     10816     10817
     10763     10813     10816     10818     10763     10813     10816     10819
     10764     10763     10813     10814     10764     10763     10813     10815
     10764     10763     10813     10816     10765     10763     10813     10814
     10765     10763     10813     10815     10765     10763     10813     10816
     10766     10769     10772     10773     10766     10769     10772     10774
     10766     10769     10772     10775     10767     10766     10769     10770
     10767     10766     10769     10771     10767     10766     10769     10772
     10768     10766     10769     10770     10768     10766     10769     10771
     10768     10766     10769     10772     10769     10772     10775     10776
     10769     10772     10775     10777     10769     10772     10775     10778
     10770     10769     10772     10773     10770     10769     10772     10774
     10770     10769     10772     10775     10771     10769     10772     10773
     10771     10769     10772     10774     10771     10769     10772     10775
     10772     10775     10778     10779     10772     10775     10778     10780
     10772     10775     10778     10781     10773     10772     10775     10776
     10773     10772     10775     10777     10773     10772     10775     10778
     10774     10772     10775     10776     10774     10772     10775     10777
     10774     10772     10775     10778     10775     10778     10781     10782
     10775     10778     10781     10783     10775     10778     10781     10784
     10776     10775     10778     10779     10776     10775     10778     10780
     10776     10775     10778     10781     10777     10775     10778     10779
     10777     10775     10778     10780     10777     10775     10778     10781
     10778     10781     10784     10785     10778     10781     10784     10786
     10779     10778     10781     10782     10779     10778     10781     10783
     10779     10778     10781     10784     10780     10778     10781     10782
     10780     10778     10781     10783     10780     10778     10781     10784
     10781     10784     10786     10787     10781     10784     10786     10788
     10782     10781     10784     10785     10782     10781     10784     10786
     10783     10781     10784     10785     10783     10781     10784     10786
     10784     10786     10788     10789     10784     10786     10788     10790
     10784     10786     10788     10791     10785     10784     10786     10787
     10785     10784     10786     10788     10786     10788     10791     10792
     10786     10788     10791     10793     10786     10788     10791     10794
     10787     10786     10788     10789     10787     10786     10788     10790
     10787     10786     10788     10791     10788     10791     10794     10795
     10788     10791     10794     10796     10788     10791     10794     10797
     10789     10788     10791     10792     10789     10788     10791     10793
     10789     10788     10791     10794     10790     10788     10791     10792
     10790     10788     10791     10793     10790     10788     10791     10794
     10791     10794     10797     10798     10791     10794     10797     10799
     10791     10794     10797     10800     10792     10791     10794     10795
     10792     10791     10794     10796     10792     10791     10794     10797
     10793     10791     10794     10795     10793     10791     10794     10796
     10793     10791     10794     10797     10794     10797     10800     10801
     10794     10797     10800     10802     10794     10797     10800     10803
     10795     10794     10797     10798     10795     10794     10797     10799
     10795     10794     10797     10800     10796     10794     10797     10798
     10796     10794     10797     10799     10796     10794     10797     10800
     10797     10800     10803     10804     10797     10800     10803     10805
     10797     10800     10803     10806     10798     10797     10800     10801
     10798     10797     10800     10802     10798     10797     10800     10803
     10799     10797     10800     10801     10799     10797     10800     10802
     10799     10797     10800     10803     10800     10803     10806     10807
     10800     10803     10806     10808     10800     10803     10806     10809
     10801     10800     10803     10804     10801     10800     10803     10805
     10801     10800     10803     10806     10802     10800     10803     10804
     10802     10800     10803     10805     10802     10800     10803     10806
     10803     10806     10809     10810     10803     10806     10809     10811
     10803     10806     10809     10812     10804     10803     10806     10807
     10804     10803     10806     10808     10804     10803     10806     10809
     10805     10803     10806     10807     10805     10803     10806     10808
     10805     10803     10806     10809     10807     10806     10809     10810
     10807     10806     10809     10811     10807     10806     10809     10812
     10808     10806     10809     10810     10808     10806     10809     10811
     10808     10806     10809     10812     10813     10816     10819     10820
     10813     10816     10819     10821     10813     10816     10819     10822
     10814     10813     10816     10817     10814     10813     10816     10818
     10814     10813     10816     10819     10815     10813     10816     10817
     10815     10813     10816     10818     10815     10813     10816     10819
     10816     10819     10822     10823     10816     10819     10822     10824
     10816     10819     10822     10825     10817     10816     10819     10820
     10817     10816     10819     10821     10817     10816     10819     10822
     10818     10816     10819     10820     10818     10816     10819     10821
     10818     10816     10819     10822     10819     10822     10825     10826
     10819     10822     10825     10827     10819     10822     10825     10828
     10820     10819     10822     10823     10820     10819     10822     10824
     10820     10819     10822     10825     10821     10819     10822     10823
     10821     10819     10822     10824     10821     10819     10822     10825
     10822     10825     10828     10829     10822     10825     10828     10830
     10822     10825     10828     10831     10823     10822     10825     10826
     10823     10822     10825     10827     10823     10822     10825     10828
     10824     10822     10825     10826     10824     10822     10825     10827
     10824     10822     10825     10828     10825     10828     10831     10832
     10825     10828     10831     10833     10825     10828     10831     10834
     10826     10825     10828     10829     10826     10825     10828     10830
     10826     10825     10828     10831     10827     10825     10828     10829
     10827     10825     10828     10830     10827     10825     10828     10831
     10828     10831     10834     10835     10828     10831     10834     10836
     10828     10831     10834     10837     10829     10828     10831     10832
     10829     10828     10831     10833     10829     10828     10831     10834
     10830     10828     10831     10832     10830     10828     10831     10833
     10830     10828     10831     10834     10831     10834     10837     10838
     10831     10834     10837     10839     10831     10834     10837     10840
     10832     10831     10834     10835     10832     10831     10834     10836
     10832     10831     10834     10837     10833     10831     10834     10835
     10833     10831     10834     10836     10833     10831     10834     10837
     10834     10837     10840     10841     10834     10837     10840     10842
     10834     10837     10840     10843     10835     10834     10837     10838
     10835     10834     10837     10839     10835     10834     10837     10840
     10836     10834     10837     10838     10836     10834     10837     10839
     10836     10834     10837     10840     10837     10840     10843     10844
     10837     10840     10843     10845     10837     10840     10843     10846
     10838     10837     10840     10841     10838     10837     10840     10842
     10838     10837     10840     10843     10839     10837     10840     10841
     10839     10837     10840     10842     10839     10837     10840     10843
     10840     10843     10846     10847     10840     10843     10846     10848
     10840     10843     10846     10849     10841     10840     10843     10844
     10841     10840     10843     10845     10841     10840     10843     10846
     10842     10840     10843     10844     10842     10840     10843     10845
     10842     10840     10843     10846     10843     10846     10849     10850
     10843     10846     10849     10851     10843     10846     10849     10852
     10844     10843     10846     10847     10844     10843     10846     10848
     10844     10843     10846     10849     10845     10843     10846     10847
     10845     10843     10846     10848     10845     10843     10846     10849
     10846     10849     10852     10853     10846     10849     10852     10854
     10846     10849     10852     10855     10847     10846     10849     10850
     10847     10846     10849     10851     10847     10846     10849     10852
     10848     10846     10849     10850     10848     10846     10849     10851
     10848     10846     10849     10852     10850     10849     10852     10853
     10850     10849     10852     10854     10850     10849     10852     10855
     10851     10849     10852     10853     10851     10849     10852     10854
     10851     10849     10852     10855     10856     10857     10872     10873
     10856     10857     10872     10874     10856     10857     10872     10878
     10857     10856     10860     10861     10857     10856     10860     10862
     10857     10856     10860     10863     10857     10856     10864     10865
     10857     10856     10864     10866     10857     10856     10864     10867
     10857     10856     10868     10869     10857     10856     10868     10870
     10857     10856     10868     10871     10857     10872     10878     10875
     10858     10857     10856     10860     10858     10857     10856     10864
     10858     10857     10856     10868     10858     10857     10872     10873
     10858     10857     10872     10874     10858     10857     10872     10878
     10859     10857     10856     10860     10859     10857     10856     10864
     10859     10857     10856     10868     10859     10857     10872     10873
     10859     10857     10872     10874     10859     10857     10872     10878
     10860     10856     10857     10872     10860     10856     10864     10865
     10860     10856     10864     10866     10860     10856     10864     10867
     10860     10856     10868     10869     10860     10856     10868     10870
     10860     10856     10868     10871     10861     10860     10856     10864
     10861     10860     10856     10868     10862     10860     10856     10864
     10862     10860     10856     10868     10863     10860     10856     10864
     10863     10860     10856     10868     10864     10856     10857     10872
     10864     10856     10868     10869     10864     10856     10868     10870
     10864     10856     10868     10871     10865     10864     10856     10868
     10866     10864     10856     10868     10867     10864     10856     10868
     10868     10856     10857     10872     10872     10878     10875     10876
     10872     10878     10875     10877     10872     10878     10875     10879
     10873     10872     10878     10875     10874     10872     10878     10875
     10875     10879     10880     10881     10875     10879     10880     10882
     10875     10879     10880     10883     10876     10875     10879     10880
     10877     10875     10879     10880     10878     10875     10879     10880
     10879     10880     10883     10884     10879     10880     10883     10885
     10879     10880     10883     10891     10880     10883     10885     10886
     10880     10883     10891     10892     10880     10883     10891     10893
     10880     10883     10891     10894     10881     10880     10883     10884
     10881     10880     10883     10885     10881     10880     10883     10891
     10882     10880     10883     10884     10882     10880     10883     10885
     10882     10880     10883     10891     10883     10885     10886     10887
     10883     10885     10886     10888     10883     10891     10894     10895
     10884     10883     10885     10886     10884     10883     10891     10892
     10884     10883     10891     10893     10884     10883     10891     10894
     10885     10883     10891     10892     10885     10883     10891     10893
     10885     10883     10891     10894     10885     10886     10888     10889
     10885     10886     10888     10890     10885     10886     10888     10900
     10886     10885     10883     10891     10886     10888     10900     10901
     10886     10888     10900     10902     10886     10888     10900     10903
     10887     10886     10888     10889     10887     10886     10888     10890
     10887     10886     10888     10900     10888     10900     10903     10904
     10888     10900     10903     10905     10888     10900     10903     10906
     10889     10888     10900     10901     10889     10888     10900     10902
     10889     10888     10900     10903     10890     10888     10900     10901
     10890     10888     10900     10902     10890     10888     10900     10903
     10891     10894     10895     10896     10891     10894     10895     10897
     10892     10891     10894     10895     10893     10891     10894     10895
     10894     10895     10897     10898     10894     10895     10897     10899
     10894     10895     10897     10947     10895     10897     10947     10948
     10895     10897     10947     10949     10895     10897     10947     10950
     10896     10895     10897     10898     10896     10895     10897     10899
     10896     10895     10897     10947     10897     10947     10950     10951
     10897     10947     10950     10952     10897     10947     10950     10953
     10898     10897     10947     10948     10898     10897     10947     10949
     10898     10897     10947     10950     10899     10897     10947     10948
     10899     10897     10947     10949     10899     10897     10947     10950
     10900     10903     10906     10907     10900     10903     10906     10908
     10900     10903     10906     10909     10901     10900     10903     10904
     10901     10900     10903     10905     10901     10900     10903     10906
     10902     10900     10903     10904     10902     10900     10903     10905
     10902     10900     10903     10906     10903     10906     10909     10910
     10903     10906     10909     10911     10903     10906     10909     10912
     10904     10903     10906     10907     10904     10903     10906     10908
     10904     10903     10906     10909     10905     10903     10906     10907
     10905     10903     10906     10908     10905     10903     10906     10909
     10906     10909     10912     10913     10906     10909     10912     10914
     10906     10909     10912     10915     10907     10906     10909     10910
     10907     10906     10909     10911     10907     10906     10909     10912
     10908     10906     10909     10910     10908     10906     10909     10911
     10908     10906     10909     10912     10909     10912     10915     10916
     10909     10912     10915     10917     10909     10912     10915     10918
     10910     10909     10912     10913     10910     10909     10912     10914
     10910     10909     10912     10915     10911     10909     10912     10913
     10911     10909     10912     10914     10911     10909     10912     10915
     10912     10915     10918     10919     10912     10915     10918     10920
     10913     10912     10915     10916     10913     10912     10915     10917
     10913     10912     10915     10918     10914     10912     10915     10916
     10914     10912     10915     10917     10914     10912     10915     10918
     10915     10918     10920     10921     10915     10918     10920     10922
     10916     10915     10918     10919     10916     10915     10918     10920
     10917     10915     10918     10919     10917     10915     10918     10920
     10918     10920     10922     10923     10918     10920     10922     10924
     10918     10920     10922     10925     10919     10918     10920     10921
     10919     10918     10920     10922     10920     10922     10925     10926
     10920     10922     10925     10927     10920     10922     10925     10928
     10921     10920     10922     10923     10921     10920     10922     10924
     10921     10920     10922     10925     10922     10925     10928     10929
     10922     10925     10928     10930     10922     10925     10928     10931
     10923     10922     10925     10926     10923     10922     10925     10927
     10923     10922     10925     10928     10924     10922     10925     10926
     10924     10922     10925     10927     10924     10922     10925     10928
     10925     10928     10931     10932     10925     10928     10931     10933
     10925     10928     10931     10934     10926     10925     10928     10929
     10926     10925     10928     10930     10926     10925     10928     10931
     10927     10925     10928     10929     10927     10925     10928     10930
     10927     10925     10928     10931     10928     10931     10934     10935
     10928     10931     10934     10936     10928     10931     10934     10937
     10929     10928     10931     10932     10929     10928     10931     10933
     10929     10928     10931     10934     10930     10928     10931     10932
     10930     10928     10931     10933     10930     10928     10931     10934
     10931     10934     10937     10938     10931     10934     10937     10939
     10931     10934     10937     10940     10932     10931     10934     10935
     10932     10931     10934     10936     10932     10931     10934     10937
     10933     10931     10934     10935     10933     10931     10934     10936
     10933     10931     10934     10937     10934     10937     10940     10941
     10934     10937     10940     10942     10934     10937     10940     10943
     10935     10934     10937     10938     10935     10934     10937     10939
     10935     10934     10937     10940     10936     10934     10937     10938
     10936     10934     10937     10939     10936     10934     10937     10940
     10937     10940     10943     10944     10937     10940     10943     10945
     10937     10940     10943     10946     10938     10937     10940     10941
     10938     10937     10940     10942     10938     10937     10940     10943
     10939     10937     10940     10941     10939     10937     10940     10942
     10939     10937     10940     10943     10941     10940     10943     10944
     10941     10940     10943     10945     10941     10940     10943     10946
     10942     10940     10943     10944     10942     10940     10943     10945
     10942     10940     10943     10946     10947     10950     10953     10954
     10947     10950     10953     10955     10947     10950     10953     10956
     10948     10947     10950     10951     10948     10947     10950     10952
     10948     10947     10950     10953     10949     10947     10950     10951
     10949     10947     10950     10952     10949     10947     10950     10953
     10950     10953     10956     10957     10950     10953     10956     10958
     10950     10953     10956     10959     10951     10950     10953     10954
     10951     10950     10953     10955     10951     10950     10953     10956
     10952     10950     10953     10954     10952     10950     10953     10955
     10952     10950     10953     10956     10953     10956     10959     10960
     10953     10956     10959     10961     10953     10956     10959     10962
     10954     10953     10956     10957     10954     10953     10956     10958
     10954     10953     10956     10959     10955     10953     10956     10957
     10955     10953     10956     10958     10955     10953     10956     10959
     10956     10959     10962     10963     10956     10959     10962     10964
     10956     10959     10962     10965     10957     10956     10959     10960
     10957     10956     10959     10961     10957     10956     10959     10962
     10958     10956     10959     10960     10958     10956     10959     10961
     10958     10956     10959     10962     10959     10962     10965     10966
     10959     10962     10965     10967     10959     10962     10965     10968
     10960     10959     10962     10963     10960     10959     10962     10964
     10960     10959     10962     10965     10961     10959     10962     10963
     10961     10959     10962     10964     10961     10959     10962     10965
     10962     10965     10968     10969     10962     10965     10968     10970
     10962     10965     10968     10971     10963     10962     10965     10966
     10963     10962     10965     10967     10963     10962     10965     10968
     10964     10962     10965     10966     10964     10962     10965     10967
     10964     10962     10965     10968     10965     10968     10971     10972
     10965     10968     10971     10973     10965     10968     10971     10974
     10966     10965     10968     10969     10966     10965     10968     10970
     10966     10965     10968     10971     10967     10965     10968     10969
     10967     10965     10968     10970     10967     10965     10968     10971
     10968     10971     10974     10975     10968     10971     10974     10976
     10968     10971     10974     10977     10969     10968     10971     10972
     10969     10968     10971     10973     10969     10968     10971     10974
     10970     10968     10971     10972     10970     10968     10971     10973
     10970     10968     10971     10974     10971     10974     10977     10978
     10971     10974     10977     10979     10971     10974     10977     10980
     10972     10971     10974     10975     10972     10971     10974     10976
     10972     10971     10974     10977     10973     10971     10974     10975
     10973     10971     10974     10976     10973     10971     10974     10977
     10974     10977     10980     10981     10974     10977     10980     10982
     10974     10977     10980     10983     10975     10974     10977     10978
     10975     10974     10977     10979     10975     10974     10977     10980
     10976     10974     10977     10978     10976     10974     10977     10979
     10976     10974     10977     10980     10977     10980     10983     10984
     10977     10980     10983     10985     10977     10980     10983     10986
     10978     10977     10980     10981     10978     10977     10980     10982
     10978     10977     10980     10983     10979     10977     10980     10981
     10979     10977     10980     10982     10979     10977     10980     10983
     10980     10983     10986     10987     10980     10983     10986     10988
     10980     10983     10986     10989     10981     10980     10983     10984
     10981     10980     10983     10985     10981     10980     10983     10986
     10982     10980     10983     10984     10982     10980     10983     10985
     10982     10980     10983     10986     10984     10983     10986     10987
     10984     10983     10986     10988     10984     10983     10986     10989
     10985     10983     10986     10987     10985     10983     10986     10988
     10985     10983     10986     10989     10990     10991     11006     11007
     10990     10991     11006     11008     10990     10991     11006     11012
     10991     10990     10994     10995     10991     10990     10994     10996
     10991     10990     10994     10997     10991     10990     10998     10999
     10991     10990     10998     11000     10991     10990     10998     11001
     10991     10990     11002     11003     10991     10990     11002     11004
     10991     10990     11002     11005     10991     11006     11012     11009
     10992     10991     10990     10994     10992     10991     10990     10998
     10992     10991     10990     11002     10992     10991     11006     11007
     10992     10991     11006     11008     10992     10991     11006     11012
     10993     10991     10990     10994     10993     10991     10990     10998
     10993     10991     10990     11002     10993     10991     11006     11007
     10993     10991     11006     11008     10993     10991     11006     11012
     10994     10990     10991     11006     10994     10990     10998     10999
     10994     10990     10998     11000     10994     10990     10998     11001
     10994     10990     11002     11003     10994     10990     11002     11004
     10994     10990     11002     11005     10995     10994     10990     10998
     10995     10994     10990     11002     10996     10994     10990     10998
     10996     10994     10990     11002     10997     10994     10990     10998
     10997     10994     10990     11002     10998     10990     10991     11006
     10998     10990     11002     11003     10998     10990     11002     11004
     10998     10990     11002     11005     10999     10998     10990     11002
     11000     10998     10990     11002     11001     10998     10990     11002
     11002     10990     10991     11006     11006     11012     11009     11010
     11006     11012     11009     11011     11006     11012     11009     11013
     11007     11006     11012     11009     11008     11006     11012     11009
     11009     11013     11014     11015     11009     11013     11014     11016
     11009     11013     11014     11017     11010     11009     11013     11014
     11011     11009     11013     11014     11012     11009     11013     11014
     11013     11014     11017     11018     11013     11014     11017     11019
     11013     11014     11017     11025     11014     11017     11019     11020
     11014     11017     11025     11026     11014     11017     11025     11027
     11014     11017     11025     11028     11015     11014     11017     11018
     11015     11014     11017     11019     11015     11014     11017     11025
     11016     11014     11017     11018     11016     11014     11017     11019
     11016     11014     11017     11025     11017     11019     11020     11021
     11017     11019     11020     11022     11017     11025     11028     11029
     11018     11017     11019     11020     11018     11017     11025     11026
     11018     11017     11025     11027     11018     11017     11025     11028
     11019     11017     11025     11026     11019     11017     11025     11027
     11019     11017     11025     11028     11019     11020     11022     11023
     11019     11020     11022     11024     11019     11020     11022     11034
     11020     11019     11017     11025     11020     11022     11034     11035
     11020     11022     11034     11036     11020     11022     11034     11037
     11021     11020     11022     11023     11021     11020     11022     11024
     11021     11020     11022     11034     11022     11034     11037     11038
     11022     11034     11037     11039     11022     11034     11037     11040
     11023     11022     11034     11035     11023     11022     11034     11036
     11023     11022     11034     11037     11024     11022     11034     11035
     11024     11022     11034     11036     11024     11022     11034     11037
     11025     11028     11029     11030     11025     11028     11029     11031
     11026     11025     11028     11029     11027     11025     11028     11029
     11028     11029     11031     11032     11028     11029     11031     11033
     11028     11029     11031     11081     11029     11031     11081     11082
     11029     11031     11081     11083     11029     11031     11081     11084
     11030     11029     11031     11032     11030     11029     11031     11033
     11030     11029     11031     11081     11031     11081     11084     11085
     11031     11081     11084     11086     11031     11081     11084     11087
     11032     11031     11081     11082     11032     11031     11081     11083
     11032     11031     11081     11084     11033     11031     11081     11082
     11033     11031     11081     11083     11033     11031     11081     11084
     11034     11037     11040     11041     11034     11037     11040     11042
     11034     11037     11040     11043     11035     11034     11037     11038
     11035     11034     11037     11039     11035     11034     11037     11040
     11036     11034     11037     11038     11036     11034     11037     11039
     11036     11034     11037     11040     11037     11040     11043     11044
     11037     11040     11043     11045     11037     11040     11043     11046
     11038     11037     11040     11041     11038     11037     11040     11042
     11038     11037     11040     11043     11039     11037     11040     11041
     11039     11037     11040     11042     11039     11037     11040     11043
     11040     11043     11046     11047     11040     11043     11046     11048
     11040     11043     11046     11049     11041     11040     11043     11044
     11041     11040     11043     11045     11041     11040     11043     11046
     11042     11040     11043     11044     11042     11040     11043     11045
     11042     11040     11043     11046     11043     11046     11049     11050
     11043     11046     11049     11051     11043     11046     11049     11052
     11044     11043     11046     11047     11044     11043     11046     11048
     11044     11043     11046     11049     11045     11043     11046     11047
     11045     11043     11046     11048     11045     11043     11046     11049
     11046     11049     11052     11053     11046     11049     11052     11054
     11047     11046     11049     11050     11047     11046     11049     11051
     11047     11046     11049     11052     11048     11046     11049     11050
     11048     11046     11049     11051     11048     11046     11049     11052
     11049     11052     11054     11055     11049     11052     11054     11056
     11050     11049     11052     11053     11050     11049     11052     11054
     11051     11049     11052     11053     11051     11049     11052     11054
     11052     11054     11056     11057     11052     11054     11056     11058
     11052     11054     11056     11059     11053     11052     11054     11055
     11053     11052     11054     11056     11054     11056     11059     11060
     11054     11056     11059     11061     11054     11056     11059     11062
     11055     11054     11056     11057     11055     11054     11056     11058
     11055     11054     11056     11059     11056     11059     11062     11063
     11056     11059     11062     11064     11056     11059     11062     11065
     11057     11056     11059     11060     11057     11056     11059     11061
     11057     11056     11059     11062     11058     11056     11059     11060
     11058     11056     11059     11061     11058     11056     11059     11062
     11059     11062     11065     11066     11059     11062     11065     11067
     11059     11062     11065     11068     11060     11059     11062     11063
     11060     11059     11062     11064     11060     11059     11062     11065
     11061     11059     11062     11063     11061     11059     11062     11064
     11061     11059     11062     11065     11062     11065     11068     11069
     11062     11065     11068     11070     11062     11065     11068     11071
     11063     11062     11065     11066     11063     11062     11065     11067
     11063     11062     11065     11068     11064     11062     11065     11066
     11064     11062     11065     11067     11064     11062     11065     11068
     11065     11068     11071     11072     11065     11068     11071     11073
     11065     11068     11071     11074     11066     11065     11068     11069
     11066     11065     11068     11070     11066     11065     11068     11071
     11067     11065     11068     11069     11067     11065     11068     11070
     11067     11065     11068     11071     11068     11071     11074     11075
     11068     11071     11074     11076     11068     11071     11074     11077
     11069     11068     11071     11072     11069     11068     11071     11073
     11069     11068     11071     11074     11070     11068     11071     11072
     11070     11068     11071     11073     11070     11068     11071     11074
     11071     11074     11077     11078     11071     11074     11077     11079
     11071     11074     11077     11080     11072     11071     11074     11075
     11072     11071     11074     11076     11072     11071     11074     11077
     11073     11071     11074     11075     11073     11071     11074     11076
     11073     11071     11074     11077     11075     11074     11077     11078
     11075     11074     11077     11079     11075     11074     11077     11080
     11076     11074     11077     11078     11076     11074     11077     11079
     11076     11074     11077     11080     11081     11084     11087     11088
     11081     11084     11087     11089     11081     11084     11087     11090
     11082     11081     11084     11085     11082     11081     11084     11086
     11082     11081     11084     11087     11083     11081     11084     11085
     11083     11081     11084     11086     11083     11081     11084     11087
     11084     11087     11090     11091     11084     11087     11090     11092
     11084     11087     11090     11093     11085     11084     11087     11088
     11085     11084     11087     11089     11085     11084     11087     11090
     11086     11084     11087     11088     11086     11084     11087     11089
     11086     11084     11087     11090     11087     11090     11093     11094
     11087     11090     11093     11095     11087     11090     11093     11096
     11088     11087     11090     11091     11088     11087     11090     11092
     11088     11087     11090     11093     11089     11087     11090     11091
     11089     11087     11090     11092     11089     11087     11090     11093
     11090     11093     11096     11097     11090     11093     11096     11098
     11090     11093     11096     11099     11091     11090     11093     11094
     11091     11090     11093     11095     11091     11090     11093     11096
     11092     11090     11093     11094     11092     11090     11093     11095
     11092     11090     11093     11096     11093     11096     11099     11100
     11093     11096     11099     11101     11093     11096     11099     11102
     11094     11093     11096     11097     11094     11093     11096     11098
     11094     11093     11096     11099     11095     11093     11096     11097
     11095     11093     11096     11098     11095     11093     11096     11099
     11096     11099     11102     11103     11096     11099     11102     11104
     11096     11099     11102     11105     11097     11096     11099     11100
     11097     11096     11099     11101     11097     11096     11099     11102
     11098     11096     11099     11100     11098     11096     11099     11101
     11098     11096     11099     11102     11099     11102     11105     11106
     11099     11102     11105     11107     11099     11102     11105     11108
     11100     11099     11102     11103     11100     11099     11102     11104
     11100     11099     11102     11105     11101     11099     11102     11103
     11101     11099     11102     11104     11101     11099     11102     11105
     11102     11105     11108     11109     11102     11105     11108     11110
     11102     11105     11108     11111     11103     11102     11105     11106
     11103     11102     11105     11107     11103     11102     11105     11108
     11104     11102     11105     11106     11104     11102     11105     11107
     11104     11102     11105     11108     11105     11108     11111     11112
     11105     11108     11111     11113     11105     11108     11111     11114
     11106     11105     11108     11109     11106     11105     11108     11110
     11106     11105     11108     11111     11107     11105     11108     11109
     11107     11105     11108     11110     11107     11105     11108     11111
     11108     11111     11114     11115     11108     11111     11114     11116
     11108     11111     11114     11117     11109     11108     11111     11112
     11109     11108     11111     11113     11109     11108     11111     11114
     11110     11108     11111     11112     11110     11108     11111     11113
     11110     11108     11111     11114     11111     11114     11117     11118
     11111     11114     11117     11119     11111     11114     11117     11120
     11112     11111     11114     11115     11112     11111     11114     11116
     11112     11111     11114     11117     11113     11111     11114     11115
     11113     11111     11114     11116     11113     11111     11114     11117
     11114     11117     11120     11121     11114     11117     11120     11122
     11114     11117     11120     11123     11115     11114     11117     11118
     11115     11114     11117     11119     11115     11114     11117     11120
     11116     11114     11117     11118     11116     11114     11117     11119
     11116     11114     11117     11120     11118     11117     11120     11121
     11118     11117     11120     11122     11118     11117     11120     11123
     11119     11117     11120     11121     11119     11117     11120     11122
     11119     11117     11120     11123     11124     11125     11140     11141
     11124     11125     11140     11142     11124     11125     11140     11146
     11125     11124     11128     11129     11125     11124     11128     11130
     11125     11124     11128     11131     11125     11124     11132     11133
     11125     11124     11132     11134     11125     11124     11132     11135
     11125     11124     11136     11137     11125     11124     11136     11138
     11125     11124     11136     11139     11125     11140     11146     11143
     11126     11125     11124     11128     11126     11125     11124     11132
     11126     11125     11124     11136     11126     11125     11140     11141
     11126     11125     11140     11142     11126     11125     11140     11146
     11127     11125     11124     11128     11127     11125     11124     11132
     11127     11125     11124     11136     11127     11125     11140     11141
     11127     11125     11140     11142     11127     11125     11140     11146
     11128     11124     11125     11140     11128     11124     11132     11133
     11128     11124     11132     11134     11128     11124     11132     11135
     11128     11124     11136     11137     11128     11124     11136     11138
     11128     11124     11136     11139     11129     11128     11124     11132
     11129     11128     11124     11136     11130     11128     11124     11132
     11130     11128     11124     11136     11131     11128     11124     11132
     11131     11128     11124     11136     11132     11124     11125     11140
     11132     11124     11136     11137     11132     11124     11136     11138
     11132     11124     11136     11139     11133     11132     11124     11136
     11134     11132     11124     11136     11135     11132     11124     11136
     11136     11124     11125     11140     11140     11146     11143     11144
     11140     11146     11143     11145     11140     11146     11143     11147
     11141     11140     11146     11143     11142     11140     11146     11143
     11143     11147     11148     11149     11143     11147     11148     11150
     11143     11147     11148     11151     11144     11143     11147     11148
     11145     11143     11147     11148     11146     11143     11147     11148
     11147     11148     11151     11152     11147     11148     11151     11153
     11147     11148     11151     11159     11148     11151     11153     11154
     11148     11151     11159     11160     11148     11151     11159     11161
     11148     11151     11159     11162     11149     11148     11151     11152
     11149     11148     11151     11153     11149     11148     11151     11159
     11150     11148     11151     11152     11150     11148     11151     11153
     11150     11148     11151     11159     11151     11153     11154     11155
     11151     11153     11154     11156     11151     11159     11162     11163
     11152     11151     11153     11154     11152     11151     11159     11160
     11152     11151     11159     11161     11152     11151     11159     11162
     11153     11151     11159     11160     11153     11151     11159     11161
     11153     11151     11159     11162     11153     11154     11156     11157
     11153     11154     11156     11158     11153     11154     11156     11168
     11154     11153     11151     11159     11154     11156     11168     11169
     11154     11156     11168     11170     11154     11156     11168     11171
     11155     11154     11156     11157     11155     11154     11156     11158
     11155     11154     11156     11168     11156     11168     11171     11172
     11156     11168     11171     11173     11156     11168     11171     11174
     11157     11156     11168     11169     11157     11156     11168     11170
     11157     11156     11168     11171     11158     11156     11168     11169
     11158     11156     11168     11170     11158     11156     11168     11171
     11159     11162     11163     11164     11159     11162     11163     11165
     11160     11159     11162     11163     11161     11159     11162     11163
     11162     11163     11165     11166     11162     11163     11165     11167
     11162     11163     11165     11215     11163     11165     11215     11216
     11163     11165     11215     11217     11163     11165     11215     11218
     11164     11163     11165     11166     11164     11163     11165     11167
     11164     11163     11165     11215     11165     11215     11218     11219
     11165     11215     11218     11220     11165     11215     11218     11221
     11166     11165     11215     11216     11166     11165     11215     11217
     11166     11165     11215     11218     11167     11165     11215     11216
     11167     11165     11215     11217     11167     11165     11215     11218
     11168     11171     11174     11175     11168     11171     11174     11176
     11168     11171     11174     11177     11169     11168     11171     11172
     11169     11168     11171     11173     11169     11168     11171     11174
     11170     11168     11171     11172     11170     11168     11171     11173
     11170     11168     11171     11174     11171     11174     11177     11178
     11171     11174     11177     11179     11171     11174     11177     11180
     11172     11171     11174     11175     11172     11171     11174     11176
     11172     11171     11174     11177     11173     11171     11174     11175
     11173     11171     11174     11176     11173     11171     11174     11177
     11174     11177     11180     11181     11174     11177     11180     11182
     11174     11177     11180     11183     11175     11174     11177     11178
     11175     11174     11177     11179     11175     11174     11177     11180
     11176     11174     11177     11178     11176     11174     11177     11179
     11176     11174     11177     11180     11177     11180     11183     11184
     11177     11180     11183     11185     11177     11180     11183     11186
     11178     11177     11180     11181     11178     11177     11180     11182
     11178     11177     11180     11183     11179     11177     11180     11181
     11179     11177     11180     11182     11179     11177     11180     11183
     11180     11183     11186     11187     11180     11183     11186     11188
     11181     11180     11183     11184     11181     11180     11183     11185
     11181     11180     11183     11186     11182     11180     11183     11184
     11182     11180     11183     11185     11182     11180     11183     11186
     11183     11186     11188     11189     11183     11186     11188     11190
     11184     11183     11186     11187     11184     11183     11186     11188
     11185     11183     11186     11187     11185     11183     11186     11188
     11186     11188     11190     11191     11186     11188     11190     11192
     11186     11188     11190     11193     11187     11186     11188     11189
     11187     11186     11188     11190     11188     11190     11193     11194
     11188     11190     11193     11195     11188     11190     11193     11196
     11189     11188     11190     11191     11189     11188     11190     11192
     11189     11188     11190     11193     11190     11193     11196     11197
     11190     11193     11196     11198     11190     11193     11196     11199
     11191     11190     11193     11194     11191     11190     11193     11195
     11191     11190     11193     11196     11192     11190     11193     11194
     11192     11190     11193     11195     11192     11190     11193     11196
     11193     11196     11199     11200     11193     11196     11199     11201
     11193     11196     11199     11202     11194     11193     11196     11197
     11194     11193     11196     11198     11194     11193     11196     11199
     11195     11193     11196     11197     11195     11193     11196     11198
     11195     11193     11196     11199     11196     11199     11202     11203
     11196     11199     11202     11204     11196     11199     11202     11205
     11197     11196     11199     11200     11197     11196     11199     11201
     11197     11196     11199     11202     11198     11196     11199     11200
     11198     11196     11199     11201     11198     11196     11199     11202
     11199     11202     11205     11206     11199     11202     11205     11207
     11199     11202     11205     11208     11200     11199     11202     11203
     11200     11199     11202     11204     11200     11199     11202     11205
     11201     11199     11202     11203     11201     11199     11202     11204
     11201     11199     11202     11205     11202     11205     11208     11209
     11202     11205     11208     11210     11202     11205     11208     11211
     11203     11202     11205     11206     11203     11202     11205     11207
     11203     11202     11205     11208     11204     11202     11205     11206
     11204     11202     11205     11207     11204     11202     11205     11208
     11205     11208     11211     11212     11205     11208     11211     11213
     11205     11208     11211     11214     11206     11205     11208     11209
     11206     11205     11208     11210     11206     11205     11208     11211
     11207     11205     11208     11209     11207     11205     11208     11210
     11207     11205     11208     11211     11209     11208     11211     11212
     11209     11208     11211     11213     11209     11208     11211     11214
     11210     11208     11211     11212     11210     11208     11211     11213
     11210     11208     11211     11214     11215     11218     11221     11222
     11215     11218     11221     11223     11215     11218     11221     11224
     11216     11215     11218     11219     11216     11215     11218     11220
     11216     11215     11218     11221     11217     11215     11218     11219
     11217     11215     11218     11220     11217     11215     11218     11221
     11218     11221     11224     11225     11218     11221     11224     11226
     11218     11221     11224     11227     11219     11218     11221     11222
     11219     11218     11221     11223     11219     11218     11221     11224
     11220     11218     11221     11222     11220     11218     11221     11223
     11220     11218     11221     11224     11221     11224     11227     11228
     11221     11224     11227     11229     11221     11224     11227     11230
     11222     11221     11224     11225     11222     11221     11224     11226
     11222     11221     11224     11227     11223     11221     11224     11225
     11223     11221     11224     11226     11223     11221     11224     11227
     11224     11227     11230     11231     11224     11227     11230     11232
     11224     11227     11230     11233     11225     11224     11227     11228
     11225     11224     11227     11229     11225     11224     11227     11230
     11226     11224     11227     11228     11226     11224     11227     11229
     11226     11224     11227     11230     11227     11230     11233     11234
     11227     11230     11233     11235     11227     11230     11233     11236
     11228     11227     11230     11231     11228     11227     11230     11232
     11228     11227     11230     11233     11229     11227     11230     11231
     11229     11227     11230     11232     11229     11227     11230     11233
     11230     11233     11236     11237     11230     11233     11236     11238
     11230     11233     11236     11239     11231     11230     11233     11234
     11231     11230     11233     11235     11231     11230     11233     11236
     11232     11230     11233     11234     11232     11230     11233     11235
     11232     11230     11233     11236     11233     11236     11239     11240
     11233     11236     11239     11241     11233     11236     11239     11242
     11234     11233     11236     11237     11234     11233     11236     11238
     11234     11233     11236     11239     11235     11233     11236     11237
     11235     11233     11236     11238     11235     11233     11236     11239
     11236     11239     11242     11243     11236     11239     11242     11244
     11236     11239     11242     11245     11237     11236     11239     11240
     11237     11236     11239     11241     11237     11236     11239     11242
     11238     11236     11239     11240     11238     11236     11239     11241
     11238     11236     11239     11242     11239     11242     11245     11246
     11239     11242     11245     11247     11239     11242     11245     11248
     11240     11239     11242     11243     11240     11239     11242     11244
     11240     11239     11242     11245     11241     11239     11242     11243
     11241     11239     11242     11244     11241     11239     11242     11245
     11242     11245     11248     11249     11242     11245     11248     11250
     11242     11245     11248     11251     11243     11242     11245     11246
     11243     11242     11245     11247     11243     11242     11245     11248
     11244     11242     11245     11246     11244     11242     11245     11247
     11244     11242     11245     11248     11245     11248     11251     11252
     11245     11248     11251     11253     11245     11248     11251     11254
     11246     11245     11248     11249     11246     11245     11248     11250
     11246     11245     11248     11251     11247     11245     11248     11249
     11247     11245     11248     11250     11247     11245     11248     11251
     11248     11251     11254     11255     11248     11251     11254     11256
     11248     11251     11254     11257     11249     11248     11251     11252
     11249     11248     11251     11253     11249     11248     11251     11254
     11250     11248     11251     11252     11250     11248     11251     11253
     11250     11248     11251     11254     11252     11251     11254     11255
     11252     11251     11254     11256     11252     11251     11254     11257
     11253     11251     11254     11255     11253     11251     11254     11256
     11253     11251     11254     11257     11258     11259     11274     11275
     11258     11259     11274     11276     11258     11259     11274     11280
     11259     11258     11262     11263     11259     11258     11262     11264
     11259     11258     11262     11265     11259     11258     11266     11267
     11259     11258     11266     11268     11259     11258     11266     11269
     11259     11258     11270     11271     11259     11258     11270     11272
     11259     11258     11270     11273     11259     11274     11280     11277
     11260     11259     11258     11262     11260     11259     11258     11266
     11260     11259     11258     11270     11260     11259     11274     11275
     11260     11259     11274     11276     11260     11259     11274     11280
     11261     11259     11258     11262     11261     11259     11258     11266
     11261     11259     11258     11270     11261     11259     11274     11275
     11261     11259     11274     11276     11261     11259     11274     11280
     11262     11258     11259     11274     11262     11258     11266     11267
     11262     11258     11266     11268     11262     11258     11266     11269
     11262     11258     11270     11271     11262     11258     11270     11272
     11262     11258     11270     11273     11263     11262     11258     11266
     11263     11262     11258     11270     11264     11262     11258     11266
     11264     11262     11258     11270     11265     11262     11258     11266
     11265     11262     11258     11270     11266     11258     11259     11274
     11266     11258     11270     11271     11266     11258     11270     11272
     11266     11258     11270     11273     11267     11266     11258     11270
     11268     11266     11258     11270     11269     11266     11258     11270
     11270     11258     11259     11274     11274     11280     11277     11278
     11274     11280     11277     11279     11274     11280     11277     11281
     11275     11274     11280     11277     11276     11274     11280     11277
     11277     11281     11282     11283     11277     11281     11282     11284
     11277     11281     11282     11285     11278     11277     11281     11282
     11279     11277     11281     11282     11280     11277     11281     11282
     11281     11282     11285     11286     11281     11282     11285     11287
     11281     11282     11285     11293     11282     11285     11287     11288
     11282     11285     11293     11294     11282     11285     11293     11295
     11282     11285     11293     11296     11283     11282     11285     11286
     11283     11282     11285     11287     11283     11282     11285     11293
     11284     11282     11285     11286     11284     11282     11285     11287
     11284     11282     11285     11293     11285     11287     11288     11289
     11285     11287     11288     11290     11285     11293     11296     11297
     11286     11285     11287     11288     11286     11285     11293     11294
     11286     11285     11293     11295     11286     11285     11293     11296
     11287     11285     11293     11294     11287     11285     11293     11295
     11287     11285     11293     11296     11287     11288     11290     11291
     11287     11288     11290     11292     11287     11288     11290     11302
     11288     11287     11285     11293     11288     11290     11302     11303
     11288     11290     11302     11304     11288     11290     11302     11305
     11289     11288     11290     11291     11289     11288     11290     11292
     11289     11288     11290     11302     11290     11302     11305     11306
     11290     11302     11305     11307     11290     11302     11305     11308
     11291     11290     11302     11303     11291     11290     11302     11304
     11291     11290     11302     11305     11292     11290     11302     11303
     11292     11290     11302     11304     11292     11290     11302     11305
     11293     11296     11297     11298     11293     11296     11297     11299
     11294     11293     11296     11297     11295     11293     11296     11297
     11296     11297     11299     11300     11296     11297     11299     11301
     11296     11297     11299     11349     11297     11299     11349     11350
     11297     11299     11349     11351     11297     11299     11349     11352
     11298     11297     11299     11300     11298     11297     11299     11301
     11298     11297     11299     11349     11299     11349     11352     11353
     11299     11349     11352     11354     11299     11349     11352     11355
     11300     11299     11349     11350     11300     11299     11349     11351
     11300     11299     11349     11352     11301     11299     11349     11350
     11301     11299     11349     11351     11301     11299     11349     11352
     11302     11305     11308     11309     11302     11305     11308     11310
     11302     11305     11308     11311     11303     11302     11305     11306
     11303     11302     11305     11307     11303     11302     11305     11308
     11304     11302     11305     11306     11304     11302     11305     11307
     11304     11302     11305     11308     11305     11308     11311     11312
     11305     11308     11311     11313     11305     11308     11311     11314
     11306     11305     11308     11309     11306     11305     11308     11310
     11306     11305     11308     11311     11307     11305     11308     11309
     11307     11305     11308     11310     11307     11305     11308     11311
     11308     11311     11314     11315     11308     11311     11314     11316
     11308     11311     11314     11317     11309     11308     11311     11312
     11309     11308     11311     11313     11309     11308     11311     11314
     11310     11308     11311     11312     11310     11308     11311     11313
     11310     11308     11311     11314     11311     11314     11317     11318
     11311     11314     11317     11319     11311     11314     11317     11320
     11312     11311     11314     11315     11312     11311     11314     11316
     11312     11311     11314     11317     11313     11311     11314     11315
     11313     11311     11314     11316     11313     11311     11314     11317
     11314     11317     11320     11321     11314     11317     11320     11322
     11315     11314     11317     11318     11315     11314     11317     11319
     11315     11314     11317     11320     11316     11314     11317     11318
     11316     11314     11317     11319     11316     11314     11317     11320
     11317     11320     11322     11323     11317     11320     11322     11324
     11318     11317     11320     11321     11318     11317     11320     11322
     11319     11317     11320     11321     11319     11317     11320     11322
     11320     11322     11324     11325     11320     11322     11324     11326
     11320     11322     11324     11327     11321     11320     11322     11323
     11321     11320     11322     11324     11322     11324     11327     11328
     11322     11324     11327     11329     11322     11324     11327     11330
     11323     11322     11324     11325     11323     11322     11324     11326
     11323     11322     11324     11327     11324     11327     11330     11331
     11324     11327     11330     11332     11324     11327     11330     11333
     11325     11324     11327     11328     11325     11324     11327     11329
     11325     11324     11327     11330     11326     11324     11327     11328
     11326     11324     11327     11329     11326     11324     11327     11330
     11327     11330     11333     11334     11327     11330     11333     11335
     11327     11330     11333     11336     11328     11327     11330     11331
     11328     11327     11330     11332     11328     11327     11330     11333
     11329     11327     11330     11331     11329     11327     11330     11332
     11329     11327     11330     11333     11330     11333     11336     11337
     11330     11333     11336     11338     11330     11333     11336     11339
     11331     11330     11333     11334     11331     11330     11333     11335
     11331     11330     11333     11336     11332     11330     11333     11334
     11332     11330     11333     11335     11332     11330     11333     11336
     11333     11336     11339     11340     11333     11336     11339     11341
     11333     11336     11339     11342     11334     11333     11336     11337
     11334     11333     11336     11338     11334     11333     11336     11339
     11335     11333     11336     11337     11335     11333     11336     11338
     11335     11333     11336     11339     11336     11339     11342     11343
     11336     11339     11342     11344     11336     11339     11342     11345
     11337     11336     11339     11340     11337     11336     11339     11341
     11337     11336     11339     11342     11338     11336     11339     11340
     11338     11336     11339     11341     11338     11336     11339     11342
     11339     11342     11345     11346     11339     11342     11345     11347
     11339     11342     11345     11348     11340     11339     11342     11343
     11340     11339     11342     11344     11340     11339     11342     11345
     11341     11339     11342     11343     11341     11339     11342     11344
     11341     11339     11342     11345     11343     11342     11345     11346
     11343     11342     11345     11347     11343     11342     11345     11348
     11344     11342     11345     11346     11344     11342     11345     11347
     11344     11342     11345     11348     11349     11352     11355     11356
     11349     11352     11355     11357     11349     11352     11355     11358
     11350     11349     11352     11353     11350     11349     11352     11354
     11350     11349     11352     11355     11351     11349     11352     11353
     11351     11349     11352     11354     11351     11349     11352     11355
     11352     11355     11358     11359     11352     11355     11358     11360
     11352     11355     11358     11361     11353     11352     11355     11356
     11353     11352     11355     11357     11353     11352     11355     11358
     11354     11352     11355     11356     11354     11352     11355     11357
     11354     11352     11355     11358     11355     11358     11361     11362
     11355     11358     11361     11363     11355     11358     11361     11364
     11356     11355     11358     11359     11356     11355     11358     11360
     11356     11355     11358     11361     11357     11355     11358     11359
     11357     11355     11358     11360     11357     11355     11358     11361
     11358     11361     11364     11365     11358     11361     11364     11366
     11358     11361     11364     11367     11359     11358     11361     11362
     11359     11358     11361     11363     11359     11358     11361     11364
     11360     11358     11361     11362     11360     11358     11361     11363
     11360     11358     11361     11364     11361     11364     11367     11368
     11361     11364     11367     11369     11361     11364     11367     11370
     11362     11361     11364     11365     11362     11361     11364     11366
     11362     11361     11364     11367     11363     11361     11364     11365
     11363     11361     11364     11366     11363     11361     11364     11367
     11364     11367     11370     11371     11364     11367     11370     11372
     11364     11367     11370     11373     11365     11364     11367     11368
     11365     11364     11367     11369     11365     11364     11367     11370
     11366     11364     11367     11368     11366     11364     11367     11369
     11366     11364     11367     11370     11367     11370     11373     11374
     11367     11370     11373     11375     11367     11370     11373     11376
     11368     11367     11370     11371     11368     11367     11370     11372
     11368     11367     11370     11373     11369     11367     11370     11371
     11369     11367     11370     11372     11369     11367     11370     11373
     11370     11373     11376     11377     11370     11373     11376     11378
     11370     11373     11376     11379     11371     11370     11373     11374
     11371     11370     11373     11375     11371     11370     11373     11376
     11372     11370     11373     11374     11372     11370     11373     11375
     11372     11370     11373     11376     11373     11376     11379     11380
     11373     11376     11379     11381     11373     11376     11379     11382
     11374     11373     11376     11377     11374     11373     11376     11378
     11374     11373     11376     11379     11375     11373     11376     11377
     11375     11373     11376     11378     11375     11373     11376     11379
     11376     11379     11382     11383     11376     11379     11382     11384
     11376     11379     11382     11385     11377     11376     11379     11380
     11377     11376     11379     11381     11377     11376     11379     11382
     11378     11376     11379     11380     11378     11376     11379     11381
     11378     11376     11379     11382     11379     11382     11385     11386
     11379     11382     11385     11387     11379     11382     11385     11388
     11380     11379     11382     11383     11380     11379     11382     11384
     11380     11379     11382     11385     11381     11379     11382     11383
     11381     11379     11382     11384     11381     11379     11382     11385
     11382     11385     11388     11389     11382     11385     11388     11390
     11382     11385     11388     11391     11383     11382     11385     11386
     11383     11382     11385     11387     11383     11382     11385     11388
     11384     11382     11385     11386     11384     11382     11385     11387
     11384     11382     11385     11388     11386     11385     11388     11389
     11386     11385     11388     11390     11386     11385     11388     11391
     11387     11385     11388     11389     11387     11385     11388     11390
     11387     11385     11388     11391     11392     11393     11408     11409
     11392     11393     11408     11410     11392     11393     11408     11414
     11393     11392     11396     11397     11393     11392     11396     11398
     11393     11392     11396     11399     11393     11392     11400     11401
     11393     11392     11400     11402     11393     11392     11400     11403
     11393     11392     11404     11405     11393     11392     11404     11406
     11393     11392     11404     11407     11393     11408     11414     11411
     11394     11393     11392     11396     11394     11393     11392     11400
     11394     11393     11392     11404     11394     11393     11408     11409
     11394     11393     11408     11410     11394     11393     11408     11414
     11395     11393     11392     11396     11395     11393     11392     11400
     11395     11393     11392     11404     11395     11393     11408     11409
     11395     11393     11408     11410     11395     11393     11408     11414
     11396     11392     11393     11408     11396     11392     11400     11401
     11396     11392     11400     11402     11396     11392     11400     11403
     11396     11392     11404     11405     11396     11392     11404     11406
     11396     11392     11404     11407     11397     11396     11392     11400
     11397     11396     11392     11404     11398     11396     11392     11400
     11398     11396     11392     11404     11399     11396     11392     11400
     11399     11396     11392     11404     11400     11392     11393     11408
     11400     11392     11404     11405     11400     11392     11404     11406
     11400     11392     11404     11407     11401     11400     11392     11404
     11402     11400     11392     11404     11403     11400     11392     11404
     11404     11392     11393     11408     11408     11414     11411     11412
     11408     11414     11411     11413     11408     11414     11411     11415
     11409     11408     11414     11411     11410     11408     11414     11411
     11411     11415     11416     11417     11411     11415     11416     11418
     11411     11415     11416     11419     11412     11411     11415     11416
     11413     11411     11415     11416     11414     11411     11415     11416
     11415     11416     11419     11420     11415     11416     11419     11421
     11415     11416     11419     11427     11416     11419     11421     11422
     11416     11419     11427     11428     11416     11419     11427     11429
     11416     11419     11427     11430     11417     11416     11419     11420
     11417     11416     11419     11421     11417     11416     11419     11427
     11418     11416     11419     11420     11418     11416     11419     11421
     11418     11416     11419     11427     11419     11421     11422     11423
     11419     11421     11422     11424     11419     11427     11430     11431
     11420     11419     11421     11422     11420     11419     11427     11428
     11420     11419     11427     11429     11420     11419     11427     11430
     11421     11419     11427     11428     11421     11419     11427     11429
     11421     11419     11427     11430     11421     11422     11424     11425
     11421     11422     11424     11426     11421     11422     11424     11436
     11422     11421     11419     11427     11422     11424     11436     11437
     11422     11424     11436     11438     11422     11424     11436     11439
     11423     11422     11424     11425     11423     11422     11424     11426
     11423     11422     11424     11436     11424     11436     11439     11440
     11424     11436     11439     11441     11424     11436     11439     11442
     11425     11424     11436     11437     11425     11424     11436     11438
     11425     11424     11436     11439     11426     11424     11436     11437
     11426     11424     11436     11438     11426     11424     11436     11439
     11427     11430     11431     11432     11427     11430     11431     11433
     11428     11427     11430     11431     11429     11427     11430     11431
     11430     11431     11433     11434     11430     11431     11433     11435
     11430     11431     11433     11483     11431     11433     11483     11484
     11431     11433     11483     11485     11431     11433     11483     11486
     11432     11431     11433     11434     11432     11431     11433     11435
     11432     11431     11433     11483     11433     11483     11486     11487
     11433     11483     11486     11488     11433     11483     11486     11489
     11434     11433     11483     11484     11434     11433     11483     11485
     11434     11433     11483     11486     11435     11433     11483     11484
     11435     11433     11483     11485     11435     11433     11483     11486
     11436     11439     11442     11443     11436     11439     11442     11444
     11436     11439     11442     11445     11437     11436     11439     11440
     11437     11436     11439     11441     11437     11436     11439     11442
     11438     11436     11439     11440     11438     11436     11439     11441
     11438     11436     11439     11442     11439     11442     11445     11446
     11439     11442     11445     11447     11439     11442     11445     11448
     11440     11439     11442     11443     11440     11439     11442     11444
     11440     11439     11442     11445     11441     11439     11442     11443
     11441     11439     11442     11444     11441     11439     11442     11445
     11442     11445     11448     11449     11442     11445     11448     11450
     11442     11445     11448     11451     11443     11442     11445     11446
     11443     11442     11445     11447     11443     11442     11445     11448
     11444     11442     11445     11446     11444     11442     11445     11447
     11444     11442     11445     11448     11445     11448     11451     11452
     11445     11448     11451     11453     11445     11448     11451     11454
     11446     11445     11448     11449     11446     11445     11448     11450
     11446     11445     11448     11451     11447     11445     11448     11449
     11447     11445     11448     11450     11447     11445     11448     11451
     11448     11451     11454     11455     11448     11451     11454     11456
     11449     11448     11451     11452     11449     11448     11451     11453
     11449     11448     11451     11454     11450     11448     11451     11452
     11450     11448     11451     11453     11450     11448     11451     11454
     11451     11454     11456     11457     11451     11454     11456     11458
     11452     11451     11454     11455     11452     11451     11454     11456
     11453     11451     11454     11455     11453     11451     11454     11456
     11454     11456     11458     11459     11454     11456     11458     11460
     11454     11456     11458     11461     11455     11454     11456     11457
     11455     11454     11456     11458     11456     11458     11461     11462
     11456     11458     11461     11463     11456     11458     11461     11464
     11457     11456     11458     11459     11457     11456     11458     11460
     11457     11456     11458     11461     11458     11461     11464     11465
     11458     11461     11464     11466     11458     11461     11464     11467
     11459     11458     11461     11462     11459     11458     11461     11463
     11459     11458     11461     11464     11460     11458     11461     11462
     11460     11458     11461     11463     11460     11458     11461     11464
     11461     11464     11467     11468     11461     11464     11467     11469
     11461     11464     11467     11470     11462     11461     11464     11465
     11462     11461     11464     11466     11462     11461     11464     11467
     11463     11461     11464     11465     11463     11461     11464     11466
     11463     11461     11464     11467     11464     11467     11470     11471
     11464     11467     11470     11472     11464     11467     11470     11473
     11465     11464     11467     11468     11465     11464     11467     11469
     11465     11464     11467     11470     11466     11464     11467     11468
     11466     11464     11467     11469     11466     11464     11467     11470
     11467     11470     11473     11474     11467     11470     11473     11475
     11467     11470     11473     11476     11468     11467     11470     11471
     11468     11467     11470     11472     11468     11467     11470     11473
     11469     11467     11470     11471     11469     11467     11470     11472
     11469     11467     11470     11473     11470     11473     11476     11477
     11470     11473     11476     11478     11470     11473     11476     11479
     11471     11470     11473     11474     11471     11470     11473     11475
     11471     11470     11473     11476     11472     11470     11473     11474
     11472     11470     11473     11475     11472     11470     11473     11476
     11473     11476     11479     11480     11473     11476     11479     11481
     11473     11476     11479     11482     11474     11473     11476     11477
     11474     11473     11476     11478     11474     11473     11476     11479
     11475     11473     11476     11477     11475     11473     11476     11478
     11475     11473     11476     11479     11477     11476     11479     11480
     11477     11476     11479     11481     11477     11476     11479     11482
     11478     11476     11479     11480     11478     11476     11479     11481
     11478     11476     11479     11482     11483     11486     11489     11490
     11483     11486     11489     11491     11483     11486     11489     11492
     11484     11483     11486     11487     11484     11483     11486     11488
     11484     11483     11486     11489     11485     11483     11486     11487
     11485     11483     11486     11488     11485     11483     11486     11489
     11486     11489     11492     11493     11486     11489     11492     11494
     11486     11489     11492     11495     11487     11486     11489     11490
     11487     11486     11489     11491     11487     11486     11489     11492
     11488     11486     11489     11490     11488     11486     11489     11491
     11488     11486     11489     11492     11489     11492     11495     11496
     11489     11492     11495     11497     11489     11492     11495     11498
     11490     11489     11492     11493     11490     11489     11492     11494
     11490     11489     11492     11495     11491     11489     11492     11493
     11491     11489     11492     11494     11491     11489     11492     11495
     11492     11495     11498     11499     11492     11495     11498     11500
     11492     11495     11498     11501     11493     11492     11495     11496
     11493     11492     11495     11497     11493     11492     11495     11498
     11494     11492     11495     11496     11494     11492     11495     11497
     11494     11492     11495     11498     11495     11498     11501     11502
     11495     11498     11501     11503     11495     11498     11501     11504
     11496     11495     11498     11499     11496     11495     11498     11500
     11496     11495     11498     11501     11497     11495     11498     11499
     11497     11495     11498     11500     11497     11495     11498     11501
     11498     11501     11504     11505     11498     11501     11504     11506
     11498     11501     11504     11507     11499     11498     11501     11502
     11499     11498     11501     11503     11499     11498     11501     11504
     11500     11498     11501     11502     11500     11498     11501     11503
     11500     11498     11501     11504     11501     11504     11507     11508
     11501     11504     11507     11509     11501     11504     11507     11510
     11502     11501     11504     11505     11502     11501     11504     11506
     11502     11501     11504     11507     11503     11501     11504     11505
     11503     11501     11504     11506     11503     11501     11504     11507
     11504     11507     11510     11511     11504     11507     11510     11512
     11504     11507     11510     11513     11505     11504     11507     11508
     11505     11504     11507     11509     11505     11504     11507     11510
     11506     11504     11507     11508     11506     11504     11507     11509
     11506     11504     11507     11510     11507     11510     11513     11514
     11507     11510     11513     11515     11507     11510     11513     11516
     11508     11507     11510     11511     11508     11507     11510     11512
     11508     11507     11510     11513     11509     11507     11510     11511
     11509     11507     11510     11512     11509     11507     11510     11513
     11510     11513     11516     11517     11510     11513     11516     11518
     11510     11513     11516     11519     11511     11510     11513     11514
     11511     11510     11513     11515     11511     11510     11513     11516
     11512     11510     11513     11514     11512     11510     11513     11515
     11512     11510     11513     11516     11513     11516     11519     11520
     11513     11516     11519     11521     11513     11516     11519     11522
     11514     11513     11516     11517     11514     11513     11516     11518
     11514     11513     11516     11519     11515     11513     11516     11517
     11515     11513     11516     11518     11515     11513     11516     11519
     11516     11519     11522     11523     11516     11519     11522     11524
     11516     11519     11522     11525     11517     11516     11519     11520
     11517     11516     11519     11521     11517     11516     11519     11522
     11518     11516     11519     11520     11518     11516     11519     11521
     11518     11516     11519     11522     11520     11519     11522     11523
     11520     11519     11522     11524     11520     11519     11522     11525
     11521     11519     11522     11523     11521     11519     11522     11524
     11521     11519     11522     11525     11526     11527     11542     11543
     11526     11527     11542     11544     11526     11527     11542     11548
     11527     11526     11530     11531     11527     11526     11530     11532
     11527     11526     11530     11533     11527     11526     11534     11535
     11527     11526     11534     11536     11527     11526     11534     11537
     11527     11526     11538     11539     11527     11526     11538     11540
     11527     11526     11538     11541     11527     11542     11548     11545
     11528     11527     11526     11530     11528     11527     11526     11534
     11528     11527     11526     11538     11528     11527     11542     11543
     11528     11527     11542     11544     11528     11527     11542     11548
     11529     11527     11526     11530     11529     11527     11526     11534
     11529     11527     11526     11538     11529     11527     11542     11543
     11529     11527     11542     11544     11529     11527     11542     11548
     11530     11526     11527     11542     11530     11526     11534     11535
     11530     11526     11534     11536     11530     11526     11534     11537
     11530     11526     11538     11539     11530     11526     11538     11540
     11530     11526     11538     11541     11531     11530     11526     11534
     11531     11530     11526     11538     11532     11530     11526     11534
     11532     11530     11526     11538     11533     11530     11526     11534
     11533     11530     11526     11538     11534     11526     11527     11542
     11534     11526     11538     11539     11534     11526     11538     11540
     11534     11526     11538     11541     11535     11534     11526     11538
     11536     11534     11526     11538     11537     11534     11526     11538
     11538     11526     11527     11542     11542     11548     11545     11546
     11542     11548     11545     11547     11542     11548     11545     11549
     11543     11542     11548     11545     11544     11542     11548     11545
     11545     11549     11550     11551     11545     11549     11550     11552
     11545     11549     11550     11553     11546     11545     11549     11550
     11547     11545     11549     11550     11548     11545     11549     11550
     11549     11550     11553     11554     11549     11550     11553     11555
     11549     11550     11553     11561     11550     11553     11555     11556
     11550     11553     11561     11562     11550     11553     11561     11563
     11550     11553     11561     11564     11551     11550     11553     11554
     11551     11550     11553     11555     11551     11550     11553     11561
     11552     11550     11553     11554     11552     11550     11553     11555
     11552     11550     11553     11561     11553     11555     11556     11557
     11553     11555     11556     11558     11553     11561     11564     11565
     11554     11553     11555     11556     11554     11553     11561     11562
     11554     11553     11561     11563     11554     11553     11561     11564
     11555     11553     11561     11562     11555     11553     11561     11563
     11555     11553     11561     11564     11555     11556     11558     11559
     11555     11556     11558     11560     11555     11556     11558     11570
     11556     11555     11553     11561     11556     11558     11570     11571
     11556     11558     11570     11572     11556     11558     11570     11573
     11557     11556     11558     11559     11557     11556     11558     11560
     11557     11556     11558     11570     11558     11570     11573     11574
     11558     11570     11573     11575     11558     11570     11573     11576
     11559     11558     11570     11571     11559     11558     11570     11572
     11559     11558     11570     11573     11560     11558     11570     11571
     11560     11558     11570     11572     11560     11558     11570     11573
     11561     11564     11565     11566     11561     11564     11565     11567
     11562     11561     11564     11565     11563     11561     11564     11565
     11564     11565     11567     11568     11564     11565     11567     11569
     11564     11565     11567     11617     11565     11567     11617     11618
     11565     11567     11617     11619     11565     11567     11617     11620
     11566     11565     11567     11568     11566     11565     11567     11569
     11566     11565     11567     11617     11567     11617     11620     11621
     11567     11617     11620     11622     11567     11617     11620     11623
     11568     11567     11617     11618     11568     11567     11617     11619
     11568     11567     11617     11620     11569     11567     11617     11618
     11569     11567     11617     11619     11569     11567     11617     11620
     11570     11573     11576     11577     11570     11573     11576     11578
     11570     11573     11576     11579     11571     11570     11573     11574
     11571     11570     11573     11575     11571     11570     11573     11576
     11572     11570     11573     11574     11572     11570     11573     11575
     11572     11570     11573     11576     11573     11576     11579     11580
     11573     11576     11579     11581     11573     11576     11579     11582
     11574     11573     11576     11577     11574     11573     11576     11578
     11574     11573     11576     11579     11575     11573     11576     11577
     11575     11573     11576     11578     11575     11573     11576     11579
     11576     11579     11582     11583     11576     11579     11582     11584
     11576     11579     11582     11585     11577     11576     11579     11580
     11577     11576     11579     11581     11577     11576     11579     11582
     11578     11576     11579     11580     11578     11576     11579     11581
     11578     11576     11579     11582     11579     11582     11585     11586
     11579     11582     11585     11587     11579     11582     11585     11588
     11580     11579     11582     11583     11580     11579     11582     11584
     11580     11579     11582     11585     11581     11579     11582     11583
     11581     11579     11582     11584     11581     11579     11582     11585
     11582     11585     11588     11589     11582     11585     11588     11590
     11583     11582     11585     11586     11583     11582     11585     11587
     11583     11582     11585     11588     11584     11582     11585     11586
     11584     11582     11585     11587     11584     11582     11585     11588
     11585     11588     11590     11591     11585     11588     11590     11592
     11586     11585     11588     11589     11586     11585     11588     11590
     11587     11585     11588     11589     11587     11585     11588     11590
     11588     11590     11592     11593     11588     11590     11592     11594
     11588     11590     11592     11595     11589     11588     11590     11591
     11589     11588     11590     11592     11590     11592     11595     11596
     11590     11592     11595     11597     11590     11592     11595     11598
     11591     11590     11592     11593     11591     11590     11592     11594
     11591     11590     11592     11595     11592     11595     11598     11599
     11592     11595     11598     11600     11592     11595     11598     11601
     11593     11592     11595     11596     11593     11592     11595     11597
     11593     11592     11595     11598     11594     11592     11595     11596
     11594     11592     11595     11597     11594     11592     11595     11598
     11595     11598     11601     11602     11595     11598     11601     11603
     11595     11598     11601     11604     11596     11595     11598     11599
     11596     11595     11598     11600     11596     11595     11598     11601
     11597     11595     11598     11599     11597     11595     11598     11600
     11597     11595     11598     11601     11598     11601     11604     11605
     11598     11601     11604     11606     11598     11601     11604     11607
     11599     11598     11601     11602     11599     11598     11601     11603
     11599     11598     11601     11604     11600     11598     11601     11602
     11600     11598     11601     11603     11600     11598     11601     11604
     11601     11604     11607     11608     11601     11604     11607     11609
     11601     11604     11607     11610     11602     11601     11604     11605
     11602     11601     11604     11606     11602     11601     11604     11607
     11603     11601     11604     11605     11603     11601     11604     11606
     11603     11601     11604     11607     11604     11607     11610     11611
     11604     11607     11610     11612     11604     11607     11610     11613
     11605     11604     11607     11608     11605     11604     11607     11609
     11605     11604     11607     11610     11606     11604     11607     11608
     11606     11604     11607     11609     11606     11604     11607     11610
     11607     11610     11613     11614     11607     11610     11613     11615
     11607     11610     11613     11616     11608     11607     11610     11611
     11608     11607     11610     11612     11608     11607     11610     11613
     11609     11607     11610     11611     11609     11607     11610     11612
     11609     11607     11610     11613     11611     11610     11613     11614
     11611     11610     11613     11615     11611     11610     11613     11616
     11612     11610     11613     11614     11612     11610     11613     11615
     11612     11610     11613     11616     11617     11620     11623     11624
     11617     11620     11623     11625     11617     11620     11623     11626
     11618     11617     11620     11621     11618     11617     11620     11622
     11618     11617     11620     11623     11619     11617     11620     11621
     11619     11617     11620     11622     11619     11617     11620     11623
     11620     11623     11626     11627     11620     11623     11626     11628
     11620     11623     11626     11629     11621     11620     11623     11624
     11621     11620     11623     11625     11621     11620     11623     11626
     11622     11620     11623     11624     11622     11620     11623     11625
     11622     11620     11623     11626     11623     11626     11629     11630
     11623     11626     11629     11631     11623     11626     11629     11632
     11624     11623     11626     11627     11624     11623     11626     11628
     11624     11623     11626     11629     11625     11623     11626     11627
     11625     11623     11626     11628     11625     11623     11626     11629
     11626     11629     11632     11633     11626     11629     11632     11634
     11626     11629     11632     11635     11627     11626     11629     11630
     11627     11626     11629     11631     11627     11626     11629     11632
     11628     11626     11629     11630     11628     11626     11629     11631
     11628     11626     11629     11632     11629     11632     11635     11636
     11629     11632     11635     11637     11629     11632     11635     11638
     11630     11629     11632     11633     11630     11629     11632     11634
     11630     11629     11632     11635     11631     11629     11632     11633
     11631     11629     11632     11634     11631     11629     11632     11635
     11632     11635     11638     11639     11632     11635     11638     11640
     11632     11635     11638     11641     11633     11632     11635     11636
     11633     11632     11635     11637     11633     11632     11635     11638
     11634     11632     11635     11636     11634     11632     11635     11637
     11634     11632     11635     11638     11635     11638     11641     11642
     11635     11638     11641     11643     11635     11638     11641     11644
     11636     11635     11638     11639     11636     11635     11638     11640
     11636     11635     11638     11641     11637     11635     11638     11639
     11637     11635     11638     11640     11637     11635     11638     11641
     11638     11641     11644     11645     11638     11641     11644     11646
     11638     11641     11644     11647     11639     11638     11641     11642
     11639     11638     11641     11643     11639     11638     11641     11644
     11640     11638     11641     11642     11640     11638     11641     11643
     11640     11638     11641     11644     11641     11644     11647     11648
     11641     11644     11647     11649     11641     11644     11647     11650
     11642     11641     11644     11645     11642     11641     11644     11646
     11642     11641     11644     11647     11643     11641     11644     11645
     11643     11641     11644     11646     11643     11641     11644     11647
     11644     11647     11650     11651     11644     11647     11650     11652
     11644     11647     11650     11653     11645     11644     11647     11648
     11645     11644     11647     11649     11645     11644     11647     11650
     11646     11644     11647     11648     11646     11644     11647     11649
     11646     11644     11647     11650     11647     11650     11653     11654
     11647     11650     11653     11655     11647     11650     11653     11656
     11648     11647     11650     11651     11648     11647     11650     11652
     11648     11647     11650     11653     11649     11647     11650     11651
     11649     11647     11650     11652     11649     11647     11650     11653
     11650     11653     11656     11657     11650     11653     11656     11658
     11650     11653     11656     11659     11651     11650     11653     11654
     11651     11650     11653     11655     11651     11650     11653     11656
     11652     11650     11653     11654     11652     11650     11653     11655
     11652     11650     11653     11656     11654     11653     11656     11657
     11654     11653     11656     11658     11654     11653     11656     11659
     11655     11653     11656     11657     11655     11653     11656     11658
     11655     11653     11656     11659     11660     11661     11676     11677
     11660     11661     11676     11678     11660     11661     11676     11682
     11661     11660     11664     11665     11661     11660     11664     11666
     11661     11660     11664     11667     11661     11660     11668     11669
     11661     11660     11668     11670     11661     11660     11668     11671
     11661     11660     11672     11673     11661     11660     11672     11674
     11661     11660     11672     11675     11661     11676     11682     11679
     11662     11661     11660     11664     11662     11661     11660     11668
     11662     11661     11660     11672     11662     11661     11676     11677
     11662     11661     11676     11678     11662     11661     11676     11682
     11663     11661     11660     11664     11663     11661     11660     11668
     11663     11661     11660     11672     11663     11661     11676     11677
     11663     11661     11676     11678     11663     11661     11676     11682
     11664     11660     11661     11676     11664     11660     11668     11669
     11664     11660     11668     11670     11664     11660     11668     11671
     11664     11660     11672     11673     11664     11660     11672     11674
     11664     11660     11672     11675     11665     11664     11660     11668
     11665     11664     11660     11672     11666     11664     11660     11668
     11666     11664     11660     11672     11667     11664     11660     11668
     11667     11664     11660     11672     11668     11660     11661     11676
     11668     11660     11672     11673     11668     11660     11672     11674
     11668     11660     11672     11675     11669     11668     11660     11672
     11670     11668     11660     11672     11671     11668     11660     11672
     11672     11660     11661     11676     11676     11682     11679     11680
     11676     11682     11679     11681     11676     11682     11679     11683
     11677     11676     11682     11679     11678     11676     11682     11679
     11679     11683     11684     11685     11679     11683     11684     11686
     11679     11683     11684     11687     11680     11679     11683     11684
     11681     11679     11683     11684     11682     11679     11683     11684
     11683     11684     11687     11688     11683     11684     11687     11689
     11683     11684     11687     11695     11684     11687     11689     11690
     11684     11687     11695     11696     11684     11687     11695     11697
     11684     11687     11695     11698     11685     11684     11687     11688
     11685     11684     11687     11689     11685     11684     11687     11695
     11686     11684     11687     11688     11686     11684     11687     11689
     11686     11684     11687     11695     11687     11689     11690     11691
     11687     11689     11690     11692     11687     11695     11698     11699
     11688     11687     11689     11690     11688     11687     11695     11696
     11688     11687     11695     11697     11688     11687     11695     11698
     11689     11687     11695     11696     11689     11687     11695     11697
     11689     11687     11695     11698     11689     11690     11692     11693
     11689     11690     11692     11694     11689     11690     11692     11704
     11690     11689     11687     11695     11690     11692     11704     11705
     11690     11692     11704     11706     11690     11692     11704     11707
     11691     11690     11692     11693     11691     11690     11692     11694
     11691     11690     11692     11704     11692     11704     11707     11708
     11692     11704     11707     11709     11692     11704     11707     11710
     11693     11692     11704     11705     11693     11692     11704     11706
     11693     11692     11704     11707     11694     11692     11704     11705
     11694     11692     11704     11706     11694     11692     11704     11707
     11695     11698     11699     11700     11695     11698     11699     11701
     11696     11695     11698     11699     11697     11695     11698     11699
     11698     11699     11701     11702     11698     11699     11701     11703
     11698     11699     11701     11751     11699     11701     11751     11752
     11699     11701     11751     11753     11699     11701     11751     11754
     11700     11699     11701     11702     11700     11699     11701     11703
     11700     11699     11701     11751     11701     11751     11754     11755
     11701     11751     11754     11756     11701     11751     11754     11757
     11702     11701     11751     11752     11702     11701     11751     11753
     11702     11701     11751     11754     11703     11701     11751     11752
     11703     11701     11751     11753     11703     11701     11751     11754
     11704     11707     11710     11711     11704     11707     11710     11712
     11704     11707     11710     11713     11705     11704     11707     11708
     11705     11704     11707     11709     11705     11704     11707     11710
     11706     11704     11707     11708     11706     11704     11707     11709
     11706     11704     11707     11710     11707     11710     11713     11714
     11707     11710     11713     11715     11707     11710     11713     11716
     11708     11707     11710     11711     11708     11707     11710     11712
     11708     11707     11710     11713     11709     11707     11710     11711
     11709     11707     11710     11712     11709     11707     11710     11713
     11710     11713     11716     11717     11710     11713     11716     11718
     11710     11713     11716     11719     11711     11710     11713     11714
     11711     11710     11713     11715     11711     11710     11713     11716
     11712     11710     11713     11714     11712     11710     11713     11715
     11712     11710     11713     11716     11713     11716     11719     11720
     11713     11716     11719     11721     11713     11716     11719     11722
     11714     11713     11716     11717     11714     11713     11716     11718
     11714     11713     11716     11719     11715     11713     11716     11717
     11715     11713     11716     11718     11715     11713     11716     11719
     11716     11719     11722     11723     11716     11719     11722     11724
     11717     11716     11719     11720     11717     11716     11719     11721
     11717     11716     11719     11722     11718     11716     11719     11720
     11718     11716     11719     11721     11718     11716     11719     11722
     11719     11722     11724     11725     11719     11722     11724     11726
     11720     11719     11722     11723     11720     11719     11722     11724
     11721     11719     11722     11723     11721     11719     11722     11724
     11722     11724     11726     11727     11722     11724     11726     11728
     11722     11724     11726     11729     11723     11722     11724     11725
     11723     11722     11724     11726     11724     11726     11729     11730
     11724     11726     11729     11731     11724     11726     11729     11732
     11725     11724     11726     11727     11725     11724     11726     11728
     11725     11724     11726     11729     11726     11729     11732     11733
     11726     11729     11732     11734     11726     11729     11732     11735
     11727     11726     11729     11730     11727     11726     11729     11731
     11727     11726     11729     11732     11728     11726     11729     11730
     11728     11726     11729     11731     11728     11726     11729     11732
     11729     11732     11735     11736     11729     11732     11735     11737
     11729     11732     11735     11738     11730     11729     11732     11733
     11730     11729     11732     11734     11730     11729     11732     11735
     11731     11729     11732     11733     11731     11729     11732     11734
     11731     11729     11732     11735     11732     11735     11738     11739
     11732     11735     11738     11740     11732     11735     11738     11741
     11733     11732     11735     11736     11733     11732     11735     11737
     11733     11732     11735     11738     11734     11732     11735     11736
     11734     11732     11735     11737     11734     11732     11735     11738
     11735     11738     11741     11742     11735     11738     11741     11743
     11735     11738     11741     11744     11736     11735     11738     11739
     11736     11735     11738     11740     11736     11735     11738     11741
     11737     11735     11738     11739     11737     11735     11738     11740
     11737     11735     11738     11741     11738     11741     11744     11745
     11738     11741     11744     11746     11738     11741     11744     11747
     11739     11738     11741     11742     11739     11738     11741     11743
     11739     11738     11741     11744     11740     11738     11741     11742
     11740     11738     11741     11743     11740     11738     11741     11744
     11741     11744     11747     11748     11741     11744     11747     11749
     11741     11744     11747     11750     11742     11741     11744     11745
     11742     11741     11744     11746     11742     11741     11744     11747
     11743     11741     11744     11745     11743     11741     11744     11746
     11743     11741     11744     11747     11745     11744     11747     11748
     11745     11744     11747     11749     11745     11744     11747     11750
     11746     11744     11747     11748     11746     11744     11747     11749
     11746     11744     11747     11750     11751     11754     11757     11758
     11751     11754     11757     11759     11751     11754     11757     11760
     11752     11751     11754     11755     11752     11751     11754     11756
     11752     11751     11754     11757     11753     11751     11754     11755
     11753     11751     11754     11756     11753     11751     11754     11757
     11754     11757     11760     11761     11754     11757     11760     11762
     11754     11757     11760     11763     11755     11754     11757     11758
     11755     11754     11757     11759     11755     11754     11757     11760
     11756     11754     11757     11758     11756     11754     11757     11759
     11756     11754     11757     11760     11757     11760     11763     11764
     11757     11760     11763     11765     11757     11760     11763     11766
     11758     11757     11760     11761     11758     11757     11760     11762
     11758     11757     11760     11763     11759     11757     11760     11761
     11759     11757     11760     11762     11759     11757     11760     11763
     11760     11763     11766     11767     11760     11763     11766     11768
     11760     11763     11766     11769     11761     11760     11763     11764
     11761     11760     11763     11765     11761     11760     11763     11766
     11762     11760     11763     11764     11762     11760     11763     11765
     11762     11760     11763     11766     11763     11766     11769     11770
     11763     11766     11769     11771     11763     11766     11769     11772
     11764     11763     11766     11767     11764     11763     11766     11768
     11764     11763     11766     11769     11765     11763     11766     11767
     11765     11763     11766     11768     11765     11763     11766     11769
     11766     11769     11772     11773     11766     11769     11772     11774
     11766     11769     11772     11775     11767     11766     11769     11770
     11767     11766     11769     11771     11767     11766     11769     11772
     11768     11766     11769     11770     11768     11766     11769     11771
     11768     11766     11769     11772     11769     11772     11775     11776
     11769     11772     11775     11777     11769     11772     11775     11778
     11770     11769     11772     11773     11770     11769     11772     11774
     11770     11769     11772     11775     11771     11769     11772     11773
     11771     11769     11772     11774     11771     11769     11772     11775
     11772     11775     11778     11779     11772     11775     11778     11780
     11772     11775     11778     11781     11773     11772     11775     11776
     11773     11772     11775     11777     11773     11772     11775     11778
     11774     11772     11775     11776     11774     11772     11775     11777
     11774     11772     11775     11778     11775     11778     11781     11782
     11775     11778     11781     11783     11775     11778     11781     11784
     11776     11775     11778     11779     11776     11775     11778     11780
     11776     11775     11778     11781     11777     11775     11778     11779
     11777     11775     11778     11780     11777     11775     11778     11781
     11778     11781     11784     11785     11778     11781     11784     11786
     11778     11781     11784     11787     11779     11778     11781     11782
     11779     11778     11781     11783     11779     11778     11781     11784
     11780     11778     11781     11782     11780     11778     11781     11783
     11780     11778     11781     11784     11781     11784     11787     11788
     11781     11784     11787     11789     11781     11784     11787     11790
     11782     11781     11784     11785     11782     11781     11784     11786
     11782     11781     11784     11787     11783     11781     11784     11785
     11783     11781     11784     11786     11783     11781     11784     11787
     11784     11787     11790     11791     11784     11787     11790     11792
     11784     11787     11790     11793     11785     11784     11787     11788
     11785     11784     11787     11789     11785     11784     11787     11790
     11786     11784     11787     11788     11786     11784     11787     11789
     11786     11784     11787     11790     11788     11787     11790     11791
     11788     11787     11790     11792     11788     11787     11790     11793
     11789     11787     11790     11791     11789     11787     11790     11792
     11789     11787     11790     11793     11794     11795     11810     11811
     11794     11795     11810     11812     11794     11795     11810     11816
     11795     11794     11798     11799     11795     11794     11798     11800
     11795     11794     11798     11801     11795     11794     11802     11803
     11795     11794     11802     11804     11795     11794     11802     11805
     11795     11794     11806     11807     11795     11794     11806     11808
     11795     11794     11806     11809     11795     11810     11816     11813
     11796     11795     11794     11798     11796     11795     11794     11802
     11796     11795     11794     11806     11796     11795     11810     11811
     11796     11795     11810     11812     11796     11795     11810     11816
     11797     11795     11794     11798     11797     11795     11794     11802
     11797     11795     11794     11806     11797     11795     11810     11811
     11797     11795     11810     11812     11797     11795     11810     11816
     11798     11794     11795     11810     11798     11794     11802     11803
     11798     11794     11802     11804     11798     11794     11802     11805
     11798     11794     11806     11807     11798     11794     11806     11808
     11798     11794     11806     11809     11799     11798     11794     11802
     11799     11798     11794     11806     11800     11798     11794     11802
     11800     11798     11794     11806     11801     11798     11794     11802
     11801     11798     11794     11806     11802     11794     11795     11810
     11802     11794     11806     11807     11802     11794     11806     11808
     11802     11794     11806     11809     11803     11802     11794     11806
     11804     11802     11794     11806     11805     11802     11794     11806
     11806     11794     11795     11810     11810     11816     11813     11814
     11810     11816     11813     11815     11810     11816     11813     11817
     11811     11810     11816     11813     11812     11810     11816     11813
     11813     11817     11818     11819     11813     11817     11818     11820
     11813     11817     11818     11821     11814     11813     11817     11818
     11815     11813     11817     11818     11816     11813     11817     11818
     11817     11818     11821     11822     11817     11818     11821     11823
     11817     11818     11821     11829     11818     11821     11823     11824
     11818     11821     11829     11830     11818     11821     11829     11831
     11818     11821     11829     11832     11819     11818     11821     11822
     11819     11818     11821     11823     11819     11818     11821     11829
     11820     11818     11821     11822     11820     11818     11821     11823
     11820     11818     11821     11829     11821     11823     11824     11825
     11821     11823     11824     11826     11821     11829     11832     11833
     11822     11821     11823     11824     11822     11821     11829     11830
     11822     11821     11829     11831     11822     11821     11829     11832
     11823     11821     11829     11830     11823     11821     11829     11831
     11823     11821     11829     11832     11823     11824     11826     11827
     11823     11824     11826     11828     11823     11824     11826     11838
     11824     11823     11821     11829     11824     11826     11838     11839
     11824     11826     11838     11840     11824     11826     11838     11841
     11825     11824     11826     11827     11825     11824     11826     11828
     11825     11824     11826     11838     11826     11838     11841     11842
     11826     11838     11841     11843     11826     11838     11841     11844
     11827     11826     11838     11839     11827     11826     11838     11840
     11827     11826     11838     11841     11828     11826     11838     11839
     11828     11826     11838     11840     11828     11826     11838     11841
     11829     11832     11833     11834     11829     11832     11833     11835
     11830     11829     11832     11833     11831     11829     11832     11833
     11832     11833     11835     11836     11832     11833     11835     11837
     11832     11833     11835     11885     11833     11835     11885     11886
     11833     11835     11885     11887     11833     11835     11885     11888
     11834     11833     11835     11836     11834     11833     11835     11837
     11834     11833     11835     11885     11835     11885     11888     11889
     11835     11885     11888     11890     11835     11885     11888     11891
     11836     11835     11885     11886     11836     11835     11885     11887
     11836     11835     11885     11888     11837     11835     11885     11886
     11837     11835     11885     11887     11837     11835     11885     11888
     11838     11841     11844     11845     11838     11841     11844     11846
     11838     11841     11844     11847     11839     11838     11841     11842
     11839     11838     11841     11843     11839     11838     11841     11844
     11840     11838     11841     11842     11840     11838     11841     11843
     11840     11838     11841     11844     11841     11844     11847     11848
     11841     11844     11847     11849     11841     11844     11847     11850
     11842     11841     11844     11845     11842     11841     11844     11846
     11842     11841     11844     11847     11843     11841     11844     11845
     11843     11841     11844     11846     11843     11841     11844     11847
     11844     11847     11850     11851     11844     11847     11850     11852
     11844     11847     11850     11853     11845     11844     11847     11848
     11845     11844     11847     11849     11845     11844     11847     11850
     11846     11844     11847     11848     11846     11844     11847     11849
     11846     11844     11847     11850     11847     11850     11853     11854
     11847     11850     11853     11855     11847     11850     11853     11856
     11848     11847     11850     11851     11848     11847     11850     11852
     11848     11847     11850     11853     11849     11847     11850     11851
     11849     11847     11850     11852     11849     11847     11850     11853
     11850     11853     11856     11857     11850     11853     11856     11858
     11851     11850     11853     11854     11851     11850     11853     11855
     11851     11850     11853     11856     11852     11850     11853     11854
     11852     11850     11853     11855     11852     11850     11853     11856
     11853     11856     11858     11859     11853     11856     11858     11860
     11854     11853     11856     11857     11854     11853     11856     11858
     11855     11853     11856     11857     11855     11853     11856     11858
     11856     11858     11860     11861     11856     11858     11860     11862
     11856     11858     11860     11863     11857     11856     11858     11859
     11857     11856     11858     11860     11858     11860     11863     11864
     11858     11860     11863     11865     11858     11860     11863     11866
     11859     11858     11860     11861     11859     11858     11860     11862
     11859     11858     11860     11863     11860     11863     11866     11867
     11860     11863     11866     11868     11860     11863     11866     11869
     11861     11860     11863     11864     11861     11860     11863     11865
     11861     11860     11863     11866     11862     11860     11863     11864
     11862     11860     11863     11865     11862     11860     11863     11866
     11863     11866     11869     11870     11863     11866     11869     11871
     11863     11866     11869     11872     11864     11863     11866     11867
     11864     11863     11866     11868     11864     11863     11866     11869
     11865     11863     11866     11867     11865     11863     11866     11868
     11865     11863     11866     11869     11866     11869     11872     11873
     11866     11869     11872     11874     11866     11869     11872     11875
     11867     11866     11869     11870     11867     11866     11869     11871
     11867     11866     11869     11872     11868     11866     11869     11870
     11868     11866     11869     11871     11868     11866     11869     11872
     11869     11872     11875     11876     11869     11872     11875     11877
     11869     11872     11875     11878     11870     11869     11872     11873
     11870     11869     11872     11874     11870     11869     11872     11875
     11871     11869     11872     11873     11871     11869     11872     11874
     11871     11869     11872     11875     11872     11875     11878     11879
     11872     11875     11878     11880     11872     11875     11878     11881
     11873     11872     11875     11876     11873     11872     11875     11877
     11873     11872     11875     11878     11874     11872     11875     11876
     11874     11872     11875     11877     11874     11872     11875     11878
     11875     11878     11881     11882     11875     11878     11881     11883
     11875     11878     11881     11884     11876     11875     11878     11879
     11876     11875     11878     11880     11876     11875     11878     11881
     11877     11875     11878     11879     11877     11875     11878     11880
     11877     11875     11878     11881     11879     11878     11881     11882
     11879     11878     11881     11883     11879     11878     11881     11884
     11880     11878     11881     11882     11880     11878     11881     11883
     11880     11878     11881     11884     11885     11888     11891     11892
     11885     11888     11891     11893     11885     11888     11891     11894
     11886     11885     11888     11889     11886     11885     11888     11890
     11886     11885     11888     11891     11887     11885     11888     11889
     11887     11885     11888     11890     11887     11885     11888     11891
     11888     11891     11894     11895     11888     11891     11894     11896
     11888     11891     11894     11897     11889     11888     11891     11892
     11889     11888     11891     11893     11889     11888     11891     11894
     11890     11888     11891     11892     11890     11888     11891     11893
     11890     11888     11891     11894     11891     11894     11897     11898
     11891     11894     11897     11899     11891     11894     11897     11900
     11892     11891     11894     11895     11892     11891     11894     11896
     11892     11891     11894     11897     11893     11891     11894     11895
     11893     11891     11894     11896     11893     11891     11894     11897
     11894     11897     11900     11901     11894     11897     11900     11902
     11894     11897     11900     11903     11895     11894     11897     11898
     11895     11894     11897     11899     11895     11894     11897     11900
     11896     11894     11897     11898     11896     11894     11897     11899
     11896     11894     11897     11900     11897     11900     11903     11904
     11897     11900     11903     11905     11897     11900     11903     11906
     11898     11897     11900     11901     11898     11897     11900     11902
     11898     11897     11900     11903     11899     11897     11900     11901
     11899     11897     11900     11902     11899     11897     11900     11903
     11900     11903     11906     11907     11900     11903     11906     11908
     11900     11903     11906     11909     11901     11900     11903     11904
     11901     11900     11903     11905     11901     11900     11903     11906
     11902     11900     11903     11904     11902     11900     11903     11905
     11902     11900     11903     11906     11903     11906     11909     11910
     11903     11906     11909     11911     11903     11906     11909     11912
     11904     11903     11906     11907     11904     11903     11906     11908
     11904     11903     11906     11909     11905     11903     11906     11907
     11905     11903     11906     11908     11905     11903     11906     11909
     11906     11909     11912     11913     11906     11909     11912     11914
     11906     11909     11912     11915     11907     11906     11909     11910
     11907     11906     11909     11911     11907     11906     11909     11912
     11908     11906     11909     11910     11908     11906     11909     11911
     11908     11906     11909     11912     11909     11912     11915     11916
     11909     11912     11915     11917     11909     11912     11915     11918
     11910     11909     11912     11913     11910     11909     11912     11914
     11910     11909     11912     11915     11911     11909     11912     11913
     11911     11909     11912     11914     11911     11909     11912     11915
     11912     11915     11918     11919     11912     11915     11918     11920
     11912     11915     11918     11921     11913     11912     11915     11916
     11913     11912     11915     11917     11913     11912     11915     11918
     11914     11912     11915     11916     11914     11912     11915     11917
     11914     11912     11915     11918     11915     11918     11921     11922
     11915     11918     11921     11923     11915     11918     11921     11924
     11916     11915     11918     11919     11916     11915     11918     11920
     11916     11915     11918     11921     11917     11915     11918     11919
     11917     11915     11918     11920     11917     11915     11918     11921
     11918     11921     11924     11925     11918     11921     11924     11926
     11918     11921     11924     11927     11919     11918     11921     11922
     11919     11918     11921     11923     11919     11918     11921     11924
     11920     11918     11921     11922     11920     11918     11921     11923
     11920     11918     11921     11924     11922     11921     11924     11925
     11922     11921     11924     11926     11922     11921     11924     11927
     11923     11921     11924     11925     11923     11921     11924     11926
     11923     11921     11924     11927     11928     11932     11934     11935
     11928     11932     11934     11936     11928     11932     11937     11938
     11928     11932     11937     11939     11928     11932     11937     11943
     11929     11928     11932     11933     11929     11928     11932     11934
     11929     11928     11932     11937     11930     11928     11932     11933
     11930     11928     11932     11934     11930     11928     11932     11937
     11931     11928     11932     11933     11931     11928     11932     11934
     11931     11928     11932     11937     11932     11937     11943     11940
     11933     11932     11934     11935     11933     11932     11934     11936
     11933     11932     11937     11938     11933     11932     11937     11939
     11933     11932     11937     11943     11934     11932     11937     11938
     11934     11932     11937     11939     11934     11932     11937     11943
     11935     11934     11932     11937     11936     11934     11932     11937
     11937     11943     11940     11941     11937     11943     11940     11942
     11937     11943     11940     11944     11938     11937     11943     11940
     11939     11937     11943     11940     11940     11944     11945     11946
     11940     11944     11945     11947     11940     11944     11945     11948
     11941     11940     11944     11945     11942     11940     11944     11945
     11943     11940     11944     11945     11944     11945     11948     11949
     11944     11945     11948     11950     11944     11945     11948     11956
     11945     11948     11950     11951     11945     11948     11956     11957
     11945     11948     11956     11958     11945     11948     11956     11959
     11946     11945     11948     11949     11946     11945     11948     11950
     11946     11945     11948     11956     11947     11945     11948     11949
     11947     11945     11948     11950     11947     11945     11948     11956
     11948     11950     11951     11952     11948     11950     11951     11953
     11948     11956     11959     11960     11949     11948     11950     11951
     11949     11948     11956     11957     11949     11948     11956     11958
     11949     11948     11956     11959     11950     11948     11956     11957
     11950     11948     11956     11958     11950     11948     11956     11959
     11950     11951     11953     11954     11950     11951     11953     11955
     11950     11951     11953     11965     11951     11950     11948     11956
     11951     11953     11965     11966     11951     11953     11965     11967
     11951     11953     11965     11968     11952     11951     11953     11954
     11952     11951     11953     11955     11952     11951     11953     11965
     11953     11965     11968     11969     11953     11965     11968     11970
     11953     11965     11968     11971     11954     11953     11965     11966
     11954     11953     11965     11967     11954     11953     11965     11968
     11955     11953     11965     11966     11955     11953     11965     11967
     11955     11953     11965     11968     11956     11959     11960     11961
     11956     11959     11960     11962     11957     11956     11959     11960
     11958     11956     11959     11960     11959     11960     11962     11963
     11959     11960     11962     11964     11959     11960     11962     12012
     11960     11962     12012     12013     11960     11962     12012     12014
     11960     11962     12012     12015     11961     11960     11962     11963
     11961     11960     11962     11964     11961     11960     11962     12012
     11962     12012     12015     12016     11962     12012     12015     12017
     11962     12012     12015     12018     11963     11962     12012     12013
     11963     11962     12012     12014     11963     11962     12012     12015
     11964     11962     12012     12013     11964     11962     12012     12014
     11964     11962     12012     12015     11965     11968     11971     11972
     11965     11968     11971     11973     11965     11968     11971     11974
     11966     11965     11968     11969     11966     11965     11968     11970
     11966     11965     11968     11971     11967     11965     11968     11969
     11967     11965     11968     11970     11967     11965     11968     11971
     11968     11971     11974     11975     11968     11971     11974     11976
     11968     11971     11974     11977     11969     11968     11971     11972
     11969     11968     11971     11973     11969     11968     11971     11974
     11970     11968     11971     11972     11970     11968     11971     11973
     11970     11968     11971     11974     11971     11974     11977     11978
     11971     11974     11977     11979     11971     11974     11977     11980
     11972     11971     11974     11975     11972     11971     11974     11976
     11972     11971     11974     11977     11973     11971     11974     11975
     11973     11971     11974     11976     11973     11971     11974     11977
     11974     11977     11980     11981     11974     11977     11980     11982
     11974     11977     11980     11983     11975     11974     11977     11978
     11975     11974     11977     11979     11975     11974     11977     11980
     11976     11974     11977     11978     11976     11974     11977     11979
     11976     11974     11977     11980     11977     11980     11983     11984
     11977     11980     11983     11985     11978     11977     11980     11981
     11978     11977     11980     11982     11978     11977     11980     11983
     11979     11977     11980     11981     11979     11977     11980     11982
     11979     11977     11980     11983     11980     11983     11985     11986
     11980     11983     11985     11987     11981     11980     11983     11984
     11981     11980     11983     11985     11982     11980     11983     11984
     11982     11980     11983     11985     11983     11985     11987     11988
     11983     11985     11987     11989     11983     11985     11987     11990
     11984     11983     11985     11986     11984     11983     11985     11987
     11985     11987     11990     11991     11985     11987     11990     11992
     11985     11987     11990     11993     11986     11985     11987     11988
     11986     11985     11987     11989     11986     11985     11987     11990
     11987     11990     11993     11994     11987     11990     11993     11995
     11987     11990     11993     11996     11988     11987     11990     11991
     11988     11987     11990     11992     11988     11987     11990     11993
     11989     11987     11990     11991     11989     11987     11990     11992
     11989     11987     11990     11993     11990     11993     11996     11997
     11990     11993     11996     11998     11990     11993     11996     11999
     11991     11990     11993     11994     11991     11990     11993     11995
     11991     11990     11993     11996     11992     11990     11993     11994
     11992     11990     11993     11995     11992     11990     11993     11996
     11993     11996     11999     12000     11993     11996     11999     12001
     11993     11996     11999     12002     11994     11993     11996     11997
     11994     11993     11996     11998     11994     11993     11996     11999
     11995     11993     11996     11997     11995     11993     11996     11998
     11995     11993     11996     11999     11996     11999     12002     12003
     11996     11999     12002     12004     11996     11999     12002     12005
     11997     11996     11999     12000     11997     11996     11999     12001
     11997     11996     11999     12002     11998     11996     11999     12000
     11998     11996     11999     12001     11998     11996     11999     12002
     11999     12002     12005     12006     11999     12002     12005     12007
     11999     12002     12005     12008     12000     11999     12002     12003
     12000     11999     12002     12004     12000     11999     12002     12005
     12001     11999     12002     12003     12001     11999     12002     12004
     12001     11999     12002     12005     12002     12005     12008     12009
     12002     12005     12008     12010     12002     12005     12008     12011
     12003     12002     12005     12006     12003     12002     12005     12007
     12003     12002     12005     12008     12004     12002     12005     12006
     12004     12002     12005     12007     12004     12002     12005     12008
     12006     12005     12008     12009     12006     12005     12008     12010
     12006     12005     12008     12011     12007     12005     12008     12009
     12007     12005     12008     12010     12007     12005     12008     12011
     12012     12015     12018     12019     12012     12015     12018     12020
     12012     12015     12018     12021     12013     12012     12015     12016
     12013     12012     12015     12017     12013     12012     12015     12018
     12014     12012     12015     12016     12014     12012     12015     12017
     12014     12012     12015     12018     12015     12018     12021     12022
     12015     12018     12021     12023     12015     12018     12021     12024
     12016     12015     12018     12019     12016     12015     12018     12020
     12016     12015     12018     12021     12017     12015     12018     12019
     12017     12015     12018     12020     12017     12015     12018     12021
     12018     12021     12024     12025     12018     12021     12024     12026
     12018     12021     12024     12027     12019     12018     12021     12022
     12019     12018     12021     12023     12019     12018     12021     12024
     12020     12018     12021     12022     12020     12018     12021     12023
     12020     12018     12021     12024     12021     12024     12027     12028
     12021     12024     12027     12029     12021     12024     12027     12030
     12022     12021     12024     12025     12022     12021     12024     12026
     12022     12021     12024     12027     12023     12021     12024     12025
     12023     12021     12024     12026     12023     12021     12024     12027
     12024     12027     12030     12031     12024     12027     12030     12032
     12024     12027     12030     12033     12025     12024     12027     12028
     12025     12024     12027     12029     12025     12024     12027     12030
     12026     12024     12027     12028     12026     12024     12027     12029
     12026     12024     12027     12030     12027     12030     12033     12034
     12027     12030     12033     12035     12027     12030     12033     12036
     12028     12027     12030     12031     12028     12027     12030     12032
     12028     12027     12030     12033     12029     12027     12030     12031
     12029     12027     12030     12032     12029     12027     12030     12033
     12030     12033     12036     12037     12030     12033     12036     12038
     12030     12033     12036     12039     12031     12030     12033     12034
     12031     12030     12033     12035     12031     12030     12033     12036
     12032     12030     12033     12034     12032     12030     12033     12035
     12032     12030     12033     12036     12033     12036     12039     12040
     12033     12036     12039     12041     12033     12036     12039     12042
     12034     12033     12036     12037     12034     12033     12036     12038
     12034     12033     12036     12039     12035     12033     12036     12037
     12035     12033     12036     12038     12035     12033     12036     12039
     12036     12039     12042     12043     12036     12039     12042     12044
     12036     12039     12042     12045     12037     12036     12039     12040
     12037     12036     12039     12041     12037     12036     12039     12042
     12038     12036     12039     12040     12038     12036     12039     12041
     12038     12036     12039     12042     12039     12042     12045     12046
     12039     12042     12045     12047     12039     12042     12045     12048
     12040     12039     12042     12043     12040     12039     12042     12044
     12040     12039     12042     12045     12041     12039     12042     12043
     12041     12039     12042     12044     12041     12039     12042     12045
     12042     12045     12048     12049     12042     12045     12048     12050
     12042     12045     12048     12051     12043     12042     12045     12046
     12043     12042     12045     12047     12043     12042     12045     12048
     12044     12042     12045     12046     12044     12042     12045     12047
     12044     12042     12045     12048     12045     12048     12051     12052
     12045     12048     12051     12053     12045     12048     12051     12054
     12046     12045     12048     12049     12046     12045     12048     12050
     12046     12045     12048     12051     12047     12045     12048     12049
     12047     12045     12048     12050     12047     12045     12048     12051
     12049     12048     12051     12052     12049     12048     12051     12053
     12049     12048     12051     12054     12050     12048     12051     12052
     12050     12048     12051     12053     12050     12048     12051     12054
     12055     12059     12061     12062     12055     12059     12061     12063
     12055     12059     12064     12065     12055     12059     12064     12066
     12055     12059     12064     12070     12056     12055     12059     12060
     12056     12055     12059     12061     12056     12055     12059     12064
     12057     12055     12059     12060     12057     12055     12059     12061
     12057     12055     12059     12064     12058     12055     12059     12060
     12058     12055     12059     12061     12058     12055     12059     12064
     12059     12064     12070     12067     12060     12059     12061     12062
     12060     12059     12061     12063     12060     12059     12064     12065
     12060     12059     12064     12066     12060     12059     12064     12070
     12061     12059     12064     12065     12061     12059     12064     12066
     12061     12059     12064     12070     12062     12061     12059     12064
     12063     12061     12059     12064     12064     12070     12067     12068
     12064     12070     12067     12069     12064     12070     12067     12071
     12065     12064     12070     12067     12066     12064     12070     12067
     12067     12071     12072     12073     12067     12071     12072     12074
     12067     12071     12072     12075     12068     12067     12071     12072
     12069     12067     12071     12072     12070     12067     12071     12072
     12071     12072     12075     12076     12071     12072     12075     12077
     12071     12072     12075     12083     12072     12075     12077     12078
     12072     12075     12083     12084     12072     12075     12083     12085
     12072     12075     12083     12086     12073     12072     12075     12076
     12073     12072     12075     12077     12073     12072     12075     12083
     12074     12072     12075     12076     12074     12072     12075     12077
     12074     12072     12075     12083     12075     12077     12078     12079
     12075     12077     12078     12080     12075     12083     12086     12087
     12076     12075     12077     12078     12076     12075     12083     12084
     12076     12075     12083     12085     12076     12075     12083     12086
     12077     12075     12083     12084     12077     12075     12083     12085
     12077     12075     12083     12086     12077     12078     12080     12081
     12077     12078     12080     12082     12077     12078     12080     12092
     12078     12077     12075     12083     12078     12080     12092     12093
     12078     12080     12092     12094     12078     12080     12092     12095
     12079     12078     12080     12081     12079     12078     12080     12082
     12079     12078     12080     12092     12080     12092     12095     12096
     12080     12092     12095     12097     12080     12092     12095     12098
     12081     12080     12092     12093     12081     12080     12092     12094
     12081     12080     12092     12095     12082     12080     12092     12093
     12082     12080     12092     12094     12082     12080     12092     12095
     12083     12086     12087     12088     12083     12086     12087     12089
     12084     12083     12086     12087     12085     12083     12086     12087
     12086     12087     12089     12090     12086     12087     12089     12091
     12086     12087     12089     12139     12087     12089     12139     12140
     12087     12089     12139     12141     12087     12089     12139     12142
     12088     12087     12089     12090     12088     12087     12089     12091
     12088     12087     12089     12139     12089     12139     12142     12143
     12089     12139     12142     12144     12089     12139     12142     12145
     12090     12089     12139     12140     12090     12089     12139     12141
     12090     12089     12139     12142     12091     12089     12139     12140
     12091     12089     12139     12141     12091     12089     12139     12142
     12092     12095     12098     12099     12092     12095     12098     12100
     12092     12095     12098     12101     12093     12092     12095     12096
     12093     12092     12095     12097     12093     12092     12095     12098
     12094     12092     12095     12096     12094     12092     12095     12097
     12094     12092     12095     12098     12095     12098     12101     12102
     12095     12098     12101     12103     12095     12098     12101     12104
     12096     12095     12098     12099     12096     12095     12098     12100
     12096     12095     12098     12101     12097     12095     12098     12099
     12097     12095     12098     12100     12097     12095     12098     12101
     12098     12101     12104     12105     12098     12101     12104     12106
     12098     12101     12104     12107     12099     12098     12101     12102
     12099     12098     12101     12103     12099     12098     12101     12104
     12100     12098     12101     12102     12100     12098     12101     12103
     12100     12098     12101     12104     12101     12104     12107     12108
     12101     12104     12107     12109     12101     12104     12107     12110
     12102     12101     12104     12105     12102     12101     12104     12106
     12102     12101     12104     12107     12103     12101     12104     12105
     12103     12101     12104     12106     12103     12101     12104     12107
     12104     12107     12110     12111     12104     12107     12110     12112
     12105     12104     12107     12108     12105     12104     12107     12109
     12105     12104     12107     12110     12106     12104     12107     12108
     12106     12104     12107     12109     12106     12104     12107     12110
     12107     12110     12112     12113     12107     12110     12112     12114
     12108     12107     12110     12111     12108     12107     12110     12112
     12109     12107     12110     12111     12109     12107     12110     12112
     12110     12112     12114     12115     12110     12112     12114     12116
     12110     12112     12114     12117     12111     12110     12112     12113
     12111     12110     12112     12114     12112     12114     12117     12118
     12112     12114     12117     12119     12112     12114     12117     12120
     12113     12112     12114     12115     12113     12112     12114     12116
     12113     12112     12114     12117     12114     12117     12120     12121
     12114     12117     12120     12122     12114     12117     12120     12123
     12115     12114     12117     12118     12115     12114     12117     12119
     12115     12114     12117     12120     12116     12114     12117     12118
     12116     12114     12117     12119     12116     12114     12117     12120
     12117     12120     12123     12124     12117     12120     12123     12125
     12117     12120     12123     12126     12118     12117     12120     12121
     12118     12117     12120     12122     12118     12117     12120     12123
     12119     12117     12120     12121     12119     12117     12120     12122
     12119     12117     12120     12123     12120     12123     12126     12127
     12120     12123     12126     12128     12120     12123     12126     12129
     12121     12120     12123     12124     12121     12120     12123     12125
     12121     12120     12123     12126     12122     12120     12123     12124
     12122     12120     12123     12125     12122     12120     12123     12126
     12123     12126     12129     12130     12123     12126     12129     12131
     12123     12126     12129     12132     12124     12123     12126     12127
     12124     12123     12126     12128     12124     12123     12126     12129
     12125     12123     12126     12127     12125     12123     12126     12128
     12125     12123     12126     12129     12126     12129     12132     12133
     12126     12129     12132     12134     12126     12129     12132     12135
     12127     12126     12129     12130     12127     12126     12129     12131
     12127     12126     12129     12132     12128     12126     12129     12130
     12128     12126     12129     12131     12128     12126     12129     12132
     12129     12132     12135     12136     12129     12132     12135     12137
     12129     12132     12135     12138     12130     12129     12132     12133
     12130     12129     12132     12134     12130     12129     12132     12135
     12131     12129     12132     12133     12131     12129     12132     12134
     12131     12129     12132     12135     12133     12132     12135     12136
     12133     12132     12135     12137     12133     12132     12135     12138
     12134     12132     12135     12136     12134     12132     12135     12137
     12134     12132     12135     12138     12139     12142     12145     12146
     12139     12142     12145     12147     12139     12142     12145     12148
     12140     12139     12142     12143     12140     12139     12142     12144
     12140     12139     12142     12145     12141     12139     12142     12143
     12141     12139     12142     12144     12141     12139     12142     12145
     12142     12145     12148     12149     12142     12145     12148     12150
     12142     12145     12148     12151     12143     12142     12145     12146
     12143     12142     12145     12147     12143     12142     12145     12148
     12144     12142     12145     12146     12144     12142     12145     12147
     12144     12142     12145     12148     12145     12148     12151     12152
     12145     12148     12151     12153     12145     12148     12151     12154
     12146     12145     12148     12149     12146     12145     12148     12150
     12146     12145     12148     12151     12147     12145     12148     12149
     12147     12145     12148     12150     12147     12145     12148     12151
     12148     12151     12154     12155     12148     12151     12154     12156
     12148     12151     12154     12157     12149     12148     12151     12152
     12149     12148     12151     12153     12149     12148     12151     12154
     12150     12148     12151     12152     12150     12148     12151     12153
     12150     12148     12151     12154     12151     12154     12157     12158
     12151     12154     12157     12159     12151     12154     12157     12160
     12152     12151     12154     12155     12152     12151     12154     12156
     12152     12151     12154     12157     12153     12151     12154     12155
     12153     12151     12154     12156     12153     12151     12154     12157
     12154     12157     12160     12161     12154     12157     12160     12162
     12154     12157     12160     12163     12155     12154     12157     12158
     12155     12154     12157     12159     12155     12154     12157     12160
     12156     12154     12157     12158     12156     12154     12157     12159
     12156     12154     12157     12160     12157     12160     12163     12164
     12157     12160     12163     12165     12157     12160     12163     12166
     12158     12157     12160     12161     12158     12157     12160     12162
     12158     12157     12160     12163     12159     12157     12160     12161
     12159     12157     12160     12162     12159     12157     12160     12163
     12160     12163     12166     12167     12160     12163     12166     12168
     12160     12163     12166     12169     12161     12160     12163     12164
     12161     12160     12163     12165     12161     12160     12163     12166
     12162     12160     12163     12164     12162     12160     12163     12165
     12162     12160     12163     12166     12163     12166     12169     12170
     12163     12166     12169     12171     12163     12166     12169     12172
     12164     12163     12166     12167     12164     12163     12166     12168
     12164     12163     12166     12169     12165     12163     12166     12167
     12165     12163     12166     12168     12165     12163     12166     12169
     12166     12169     12172     12173     12166     12169     12172     12174
     12166     12169     12172     12175     12167     12166     12169     12170
     12167     12166     12169     12171     12167     12166     12169     12172
     12168     12166     12169     12170     12168     12166     12169     12171
     12168     12166     12169     12172     12169     12172     12175     12176
     12169     12172     12175     12177     12169     12172     12175     12178
     12170     12169     12172     12173     12170     12169     12172     12174
     12170     12169     12172     12175     12171     12169     12172     12173
     12171     12169     12172     12174     12171     12169     12172     12175
     12172     12175     12178     12179     12172     12175     12178     12180
     12172     12175     12178     12181     12173     12172     12175     12176
     12173     12172     12175     12177     12173     12172     12175     12178
     12174     12172     12175     12176     12174     12172     12175     12177
     12174     12172     12175     12178     12176     12175     12178     12179
     12176     12175     12178     12180     12176     12175     12178     12181
     12177     12175     12178     12179     12177     12175     12178     12180
     12177     12175     12178     12181     12182     12183     12198     12199
     12182     12183     12198     12200     12182     12183     12198     12204
     12183     12182     12186     12187     12183     12182     12186     12188
     12183     12182     12186     12189     12183     12182     12190     12191
     12183     12182     12190     12192     12183     12182     12190     12193
     12183     12182     12194     12195     12183     12182     12194     12196
     12183     12182     12194     12197     12183     12198     12204     12201
     12184     12183     12182     12186     12184     12183     12182     12190
     12184     12183     12182     12194     12184     12183     12198     12199
     12184     12183     12198     12200     12184     12183     12198     12204
     12185     12183     12182     12186     12185     12183     12182     12190
     12185     12183     12182     12194     12185     12183     12198     12199
     12185     12183     12198     12200     12185     12183     12198     12204
     12186     12182     12183     12198     12186     12182     12190     12191
     12186     12182     12190     12192     12186     12182     12190     12193
     12186     12182     12194     12195     12186     12182     12194     12196
     12186     12182     12194     12197     12187     12186     12182     12190
     12187     12186     12182     12194     12188     12186     12182     12190
     12188     12186     12182     12194     12189     12186     12182     12190
     12189     12186     12182     12194     12190     12182     12183     12198
     12190     12182     12194     12195     12190     12182     12194     12196
     12190     12182     12194     12197     12191     12190     12182     12194
     12192     12190     12182     12194     12193     12190     12182     12194
     12194     12182     12183     12198     12198     12204     12201     12202
     12198     12204     12201     12203     12198     12204     12201     12205
     12199     12198     12204     12201     12200     12198     12204     12201
     12201     12205     12206     12207     12201     12205     12206     12208
     12201     12205     12206     12209     12202     12201     12205     12206
     12203     12201     12205     12206     12204     12201     12205     12206
     12205     12206     12209     12210     12205     12206     12209     12211
     12205     12206     12209     12217     12206     12209     12211     12212
     12206     12209     12217     12218     12206     12209     12217     12219
     12206     12209     12217     12220     12207     12206     12209     12210
     12207     12206     12209     12211     12207     12206     12209     12217
     12208     12206     12209     12210     12208     12206     12209     12211
     12208     12206     12209     12217     12209     12211     12212     12213
     12209     12211     12212     12214     12209     12217     12220     12221
     12210     12209     12211     12212     12210     12209     12217     12218
     12210     12209     12217     12219     12210     12209     12217     12220
     12211     12209     12217     12218     12211     12209     12217     12219
     12211     12209     12217     12220     12211     12212     12214     12215
     12211     12212     12214     12216     12211     12212     12214     12226
     12212     12211     12209     12217     12212     12214     12226     12227
     12212     12214     12226     12228     12212     12214     12226     12229
     12213     12212     12214     12215     12213     12212     12214     12216
     12213     12212     12214     12226     12214     12226     12229     12230
     12214     12226     12229     12231     12214     12226     12229     12232
     12215     12214     12226     12227     12215     12214     12226     12228
     12215     12214     12226     12229     12216     12214     12226     12227
     12216     12214     12226     12228     12216     12214     12226     12229
     12217     12220     12221     12222     12217     12220     12221     12223
     12218     12217     12220     12221     12219     12217     12220     12221
     12220     12221     12223     12224     12220     12221     12223     12225
     12220     12221     12223     12273     12221     12223     12273     12274
     12221     12223     12273     12275     12221     12223     12273     12276
     12222     12221     12223     12224     12222     12221     12223     12225
     12222     12221     12223     12273     12223     12273     12276     12277
     12223     12273     12276     12278     12223     12273     12276     12279
     12224     12223     12273     12274     12224     12223     12273     12275
     12224     12223     12273     12276     12225     12223     12273     12274
     12225     12223     12273     12275     12225     12223     12273     12276
     12226     12229     12232     12233     12226     12229     12232     12234
     12226     12229     12232     12235     12227     12226     12229     12230
     12227     12226     12229     12231     12227     12226     12229     12232
     12228     12226     12229     12230     12228     12226     12229     12231
     12228     12226     12229     12232     12229     12232     12235     12236
     12229     12232     12235     12237     12229     12232     12235     12238
     12230     12229     12232     12233     12230     12229     12232     12234
     12230     12229     12232     12235     12231     12229     12232     12233
     12231     12229     12232     12234     12231     12229     12232     12235
     12232     12235     12238     12239     12232     12235     12238     12240
     12232     12235     12238     12241     12233     12232     12235     12236
     12233     12232     12235     12237     12233     12232     12235     12238
     12234     12232     12235     12236     12234     12232     12235     12237
     12234     12232     12235     12238     12235     12238     12241     12242
     12235     12238     12241     12243     12235     12238     12241     12244
     12236     12235     12238     12239     12236     12235     12238     12240
     12236     12235     12238     12241     12237     12235     12238     12239
     12237     12235     12238     12240     12237     12235     12238     12241
     12238     12241     12244     12245     12238     12241     12244     12246
     12239     12238     12241     12242     12239     12238     12241     12243
     12239     12238     12241     12244     12240     12238     12241     12242
     12240     12238     12241     12243     12240     12238     12241     12244
     12241     12244     12246     12247     12241     12244     12246     12248
     12242     12241     12244     12245     12242     12241     12244     12246
     12243     12241     12244     12245     12243     12241     12244     12246
     12244     12246     12248     12249     12244     12246     12248     12250
     12244     12246     12248     12251     12245     12244     12246     12247
     12245     12244     12246     12248     12246     12248     12251     12252
     12246     12248     12251     12253     12246     12248     12251     12254
     12247     12246     12248     12249     12247     12246     12248     12250
     12247     12246     12248     12251     12248     12251     12254     12255
     12248     12251     12254     12256     12248     12251     12254     12257
     12249     12248     12251     12252     12249     12248     12251     12253
     12249     12248     12251     12254     12250     12248     12251     12252
     12250     12248     12251     12253     12250     12248     12251     12254
     12251     12254     12257     12258     12251     12254     12257     12259
     12251     12254     12257     12260     12252     12251     12254     12255
     12252     12251     12254     12256     12252     12251     12254     12257
     12253     12251     12254     12255     12253     12251     12254     12256
     12253     12251     12254     12257     12254     12257     12260     12261
     12254     12257     12260     12262     12254     12257     12260     12263
     12255     12254     12257     12258     12255     12254     12257     12259
     12255     12254     12257     12260     12256     12254     12257     12258
     12256     12254     12257     12259     12256     12254     12257     12260
     12257     12260     12263     12264     12257     12260     12263     12265
     12257     12260     12263     12266     12258     12257     12260     12261
     12258     12257     12260     12262     12258     12257     12260     12263
     12259     12257     12260     12261     12259     12257     12260     12262
     12259     12257     12260     12263     12260     12263     12266     12267
     12260     12263     12266     12268     12260     12263     12266     12269
     12261     12260     12263     12264     12261     12260     12263     12265
     12261     12260     12263     12266     12262     12260     12263     12264
     12262     12260     12263     12265     12262     12260     12263     12266
     12263     12266     12269     12270     12263     12266     12269     12271
     12263     12266     12269     12272     12264     12263     12266     12267
     12264     12263     12266     12268     12264     12263     12266     12269
     12265     12263     12266     12267     12265     12263     12266     12268
     12265     12263     12266     12269     12267     12266     12269     12270
     12267     12266     12269     12271     12267     12266     12269     12272
     12268     12266     12269     12270     12268     12266     12269     12271
     12268     12266     12269     12272     12273     12276     12279     12280
     12273     12276     12279     12281     12273     12276     12279     12282
     12274     12273     12276     12277     12274     12273     12276     12278
     12274     12273     12276     12279     12275     12273     12276     12277
     12275     12273     12276     12278     12275     12273     12276     12279
     12276     12279     12282     12283     12276     12279     12282     12284
     12276     12279     12282     12285     12277     12276     12279     12280
     12277     12276     12279     12281     12277     12276     12279     12282
     12278     12276     12279     12280     12278     12276     12279     12281
     12278     12276     12279     12282     12279     12282     12285     12286
     12279     12282     12285     12287     12279     12282     12285     12288
     12280     12279     12282     12283     12280     12279     12282     12284
     12280     12279     12282     12285     12281     12279     12282     12283
     12281     12279     12282     12284     12281     12279     12282     12285
     12282     12285     12288     12289     12282     12285     12288     12290
     12282     12285     12288     12291     12283     12282     12285     12286
     12283     12282     12285     12287     12283     12282     12285     12288
     12284     12282     12285     12286     12284     12282     12285     12287
     12284     12282     12285     12288     12285     12288     12291     12292
     12285     12288     12291     12293     12285     12288     12291     12294
     12286     12285     12288     12289     12286     12285     12288     12290
     12286     12285     12288     12291     12287     12285     12288     12289
     12287     12285     12288     12290     12287     12285     12288     12291
     12288     12291     12294     12295     12288     12291     12294     12296
     12288     12291     12294     12297     12289     12288     12291     12292
     12289     12288     12291     12293     12289     12288     12291     12294
     12290     12288     12291     12292     12290     12288     12291     12293
     12290     12288     12291     12294     12291     12294     12297     12298
     12291     12294     12297     12299     12291     12294     12297     12300
     12292     12291     12294     12295     12292     12291     12294     12296
     12292     12291     12294     12297     12293     12291     12294     12295
     12293     12291     12294     12296     12293     12291     12294     12297
     12294     12297     12300     12301     12294     12297     12300     12302
     12294     12297     12300     12303     12295     12294     12297     12298
     12295     12294     12297     12299     12295     12294     12297     12300
     12296     12294     12297     12298     12296     12294     12297     12299
     12296     12294     12297     12300     12297     12300     12303     12304
     12297     12300     12303     12305     12297     12300     12303     12306
     12298     12297     12300     12301     12298     12297     12300     12302
     12298     12297     12300     12303     12299     12297     12300     12301
     12299     12297     12300     12302     12299     12297     12300     12303
     12300     12303     12306     12307     12300     12303     12306     12308
     12300     12303     12306     12309     12301     12300     12303     12304
     12301     12300     12303     12305     12301     12300     12303     12306
     12302     12300     12303     12304     12302     12300     12303     12305
     12302     12300     12303     12306     12303     12306     12309     12310
     12303     12306     12309     12311     12303     12306     12309     12312
     12304     12303     12306     12307     12304     12303     12306     12308
     12304     12303     12306     12309     12305     12303     12306     12307
     12305     12303     12306     12308     12305     12303     12306     12309
     12306     12309     12312     12313     12306     12309     12312     12314
     12306     12309     12312     12315     12307     12306     12309     12310
     12307     12306     12309     12311     12307     12306     12309     12312
     12308     12306     12309     12310     12308     12306     12309     12311
     12308     12306     12309     12312     12310     12309     12312     12313
     12310     12309     12312     12314     12310     12309     12312     12315
     12311     12309     12312     12313     12311     12309     12312     12314
     12311     12309     12312     12315     12316     12317     12332     12333
     12316     12317     12332     12334     12316     12317     12332     12338
     12317     12316     12320     12321     12317     12316     12320     12322
     12317     12316     12320     12323     12317     12316     12324     12325
     12317     12316     12324     12326     12317     12316     12324     12327
     12317     12316     12328     12329     12317     12316     12328     12330
     12317     12316     12328     12331     12317     12332     12338     12335
     12318     12317     12316     12320     12318     12317     12316     12324
     12318     12317     12316     12328     12318     12317     12332     12333
     12318     12317     12332     12334     12318     12317     12332     12338
     12319     12317     12316     12320     12319     12317     12316     12324
     12319     12317     12316     12328     12319     12317     12332     12333
     12319     12317     12332     12334     12319     12317     12332     12338
     12320     12316     12317     12332     12320     12316     12324     12325
     12320     12316     12324     12326     12320     12316     12324     12327
     12320     12316     12328     12329     12320     12316     12328     12330
     12320     12316     12328     12331     12321     12320     12316     12324
     12321     12320     12316     12328     12322     12320     12316     12324
     12322     12320     12316     12328     12323     12320     12316     12324
     12323     12320     12316     12328     12324     12316     12317     12332
     12324     12316     12328     12329     12324     12316     12328     12330
     12324     12316     12328     12331     12325     12324     12316     12328
     12326     12324     12316     12328     12327     12324     12316     12328
     12328     12316     12317     12332     12332     12338     12335     12336
     12332     12338     12335     12337     12332     12338     12335     12339
     12333     12332     12338     12335     12334     12332     12338     12335
     12335     12339     12340     12341     12335     12339     12340     12342
     12335     12339     12340     12343     12336     12335     12339     12340
     12337     12335     12339     12340     12338     12335     12339     12340
     12339     12340     12343     12344     12339     12340     12343     12345
     12339     12340     12343     12351     12340     12343     12345     12346
     12340     12343     12351     12352     12340     12343     12351     12353
     12340     12343     12351     12354     12341     12340     12343     12344
     12341     12340     12343     12345     12341     12340     12343     12351
     12342     12340     12343     12344     12342     12340     12343     12345
     12342     12340     12343     12351     12343     12345     12346     12347
     12343     12345     12346     12348     12343     12351     12354     12355
     12344     12343     12345     12346     12344     12343     12351     12352
     12344     12343     12351     12353     12344     12343     12351     12354
     12345     12343     12351     12352     12345     12343     12351     12353
     12345     12343     12351     12354     12345     12346     12348     12349
     12345     12346     12348     12350     12345     12346     12348     12360
     12346     12345     12343     12351     12346     12348     12360     12361
     12346     12348     12360     12362     12346     12348     12360     12363
     12347     12346     12348     12349     12347     12346     12348     12350
     12347     12346     12348     12360     12348     12360     12363     12364
     12348     12360     12363     12365     12348     12360     12363     12366
     12349     12348     12360     12361     12349     12348     12360     12362
     12349     12348     12360     12363     12350     12348     12360     12361
     12350     12348     12360     12362     12350     12348     12360     12363
     12351     12354     12355     12356     12351     12354     12355     12357
     12352     12351     12354     12355     12353     12351     12354     12355
     12354     12355     12357     12358     12354     12355     12357     12359
     12354     12355     12357     12407     12355     12357     12407     12408
     12355     12357     12407     12409     12355     12357     12407     12410
     12356     12355     12357     12358     12356     12355     12357     12359
     12356     12355     12357     12407     12357     12407     12410     12411
     12357     12407     12410     12412     12357     12407     12410     12413
     12358     12357     12407     12408     12358     12357     12407     12409
     12358     12357     12407     12410     12359     12357     12407     12408
     12359     12357     12407     12409     12359     12357     12407     12410
     12360     12363     12366     12367     12360     12363     12366     12368
     12360     12363     12366     12369     12361     12360     12363     12364
     12361     12360     12363     12365     12361     12360     12363     12366
     12362     12360     12363     12364     12362     12360     12363     12365
     12362     12360     12363     12366     12363     12366     12369     12370
     12363     12366     12369     12371     12363     12366     12369     12372
     12364     12363     12366     12367     12364     12363     12366     12368
     12364     12363     12366     12369     12365     12363     12366     12367
     12365     12363     12366     12368     12365     12363     12366     12369
     12366     12369     12372     12373     12366     12369     12372     12374
     12366     12369     12372     12375     12367     12366     12369     12370
     12367     12366     12369     12371     12367     12366     12369     12372
     12368     12366     12369     12370     12368     12366     12369     12371
     12368     12366     12369     12372     12369     12372     12375     12376
     12369     12372     12375     12377     12369     12372     12375     12378
     12370     12369     12372     12373     12370     12369     12372     12374
     12370     12369     12372     12375     12371     12369     12372     12373
     12371     12369     12372     12374     12371     12369     12372     12375
     12372     12375     12378     12379     12372     12375     12378     12380
     12373     12372     12375     12376     12373     12372     12375     12377
     12373     12372     12375     12378     12374     12372     12375     12376
     12374     12372     12375     12377     12374     12372     12375     12378
     12375     12378     12380     12381     12375     12378     12380     12382
     12376     12375     12378     12379     12376     12375     12378     12380
     12377     12375     12378     12379     12377     12375     12378     12380
     12378     12380     12382     12383     12378     12380     12382     12384
     12378     12380     12382     12385     12379     12378     12380     12381
     12379     12378     12380     12382     12380     12382     12385     12386
     12380     12382     12385     12387     12380     12382     12385     12388
     12381     12380     12382     12383     12381     12380     12382     12384
     12381     12380     12382     12385     12382     12385     12388     12389
     12382     12385     12388     12390     12382     12385     12388     12391
     12383     12382     12385     12386     12383     12382     12385     12387
     12383     12382     12385     12388     12384     12382     12385     12386
     12384     12382     12385     12387     12384     12382     12385     12388
     12385     12388     12391     12392     12385     12388     12391     12393
     12385     12388     12391     12394     12386     12385     12388     12389
     12386     12385     12388     12390     12386     12385     12388     12391
     12387     12385     12388     12389     12387     12385     12388     12390
     12387     12385     12388     12391     12388     12391     12394     12395
     12388     12391     12394     12396     12388     12391     12394     12397
     12389     12388     12391     12392     12389     12388     12391     12393
     12389     12388     12391     12394     12390     12388     12391     12392
     12390     12388     12391     12393     12390     12388     12391     12394
     12391     12394     12397     12398     12391     12394     12397     12399
     12391     12394     12397     12400     12392     12391     12394     12395
     12392     12391     12394     12396     12392     12391     12394     12397
     12393     12391     12394     12395     12393     12391     12394     12396
     12393     12391     12394     12397     12394     12397     12400     12401
     12394     12397     12400     12402     12394     12397     12400     12403
     12395     12394     12397     12398     12395     12394     12397     12399
     12395     12394     12397     12400     12396     12394     12397     12398
     12396     12394     12397     12399     12396     12394     12397     12400
     12397     12400     12403     12404     12397     12400     12403     12405
     12397     12400     12403     12406     12398     12397     12400     12401
     12398     12397     12400     12402     12398     12397     12400     12403
     12399     12397     12400     12401     12399     12397     12400     12402
     12399     12397     12400     12403     12401     12400     12403     12404
     12401     12400     12403     12405     12401     12400     12403     12406
     12402     12400     12403     12404     12402     12400     12403     12405
     12402     12400     12403     12406     12407     12410     12413     12414
     12407     12410     12413     12415     12407     12410     12413     12416
     12408     12407     12410     12411     12408     12407     12410     12412
     12408     12407     12410     12413     12409     12407     12410     12411
     12409     12407     12410     12412     12409     12407     12410     12413
     12410     12413     12416     12417     12410     12413     12416     12418
     12410     12413     12416     12419     12411     12410     12413     12414
     12411     12410     12413     12415     12411     12410     12413     12416
     12412     12410     12413     12414     12412     12410     12413     12415
     12412     12410     12413     12416     12413     12416     12419     12420
     12413     12416     12419     12421     12413     12416     12419     12422
     12414     12413     12416     12417     12414     12413     12416     12418
     12414     12413     12416     12419     12415     12413     12416     12417
     12415     12413     12416     12418     12415     12413     12416     12419
     12416     12419     12422     12423     12416     12419     12422     12424
     12416     12419     12422     12425     12417     12416     12419     12420
     12417     12416     12419     12421     12417     12416     12419     12422
     12418     12416     12419     12420     12418     12416     12419     12421
     12418     12416     12419     12422     12419     12422     12425     12426
     12419     12422     12425     12427     12419     12422     12425     12428
     12420     12419     12422     12423     12420     12419     12422     12424
     12420     12419     12422     12425     12421     12419     12422     12423
     12421     12419     12422     12424     12421     12419     12422     12425
     12422     12425     12428     12429     12422     12425     12428     12430
     12422     12425     12428     12431     12423     12422     12425     12426
     12423     12422     12425     12427     12423     12422     12425     12428
     12424     12422     12425     12426     12424     12422     12425     12427
     12424     12422     12425     12428     12425     12428     12431     12432
     12425     12428     12431     12433     12425     12428     12431     12434
     12426     12425     12428     12429     12426     12425     12428     12430
     12426     12425     12428     12431     12427     12425     12428     12429
     12427     12425     12428     12430     12427     12425     12428     12431
     12428     12431     12434     12435     12428     12431     12434     12436
     12428     12431     12434     12437     12429     12428     12431     12432
     12429     12428     12431     12433     12429     12428     12431     12434
     12430     12428     12431     12432     12430     12428     12431     12433
     12430     12428     12431     12434     12431     12434     12437     12438
     12431     12434     12437     12439     12431     12434     12437     12440
     12432     12431     12434     12435     12432     12431     12434     12436
     12432     12431     12434     12437     12433     12431     12434     12435
     12433     12431     12434     12436     12433     12431     12434     12437
     12434     12437     12440     12441     12434     12437     12440     12442
     12434     12437     12440     12443     12435     12434     12437     12438
     12435     12434     12437     12439     12435     12434     12437     12440
     12436     12434     12437     12438     12436     12434     12437     12439
     12436     12434     12437     12440     12437     12440     12443     12444
     12437     12440     12443     12445     12437     12440     12443     12446
     12438     12437     12440     12441     12438     12437     12440     12442
     12438     12437     12440     12443     12439     12437     12440     12441
     12439     12437     12440     12442     12439     12437     12440     12443
     12440     12443     12446     12447     12440     12443     12446     12448
     12440     12443     12446     12449     12441     12440     12443     12444
     12441     12440     12443     12445     12441     12440     12443     12446
     12442     12440     12443     12444     12442     12440     12443     12445
     12442     12440     12443     12446     12444     12443     12446     12447
     12444     12443     12446     12448     12444     12443     12446     12449
     12445     12443     12446     12447     12445     12443     12446     12448
     12445     12443     12446     12449     12450     12454     12456     12457
     12450     12454     12456     12458     12450     12454     12459     12460
     12450     12454     12459     12461     12450     12454     12459     12465
     12451     12450     12454     12455     12451     12450     12454     12456
     12451     12450     12454     12459     12452     12450     12454     12455
     12452     12450     12454     12456     12452     12450     12454     12459
     12453     12450     12454     12455     12453     12450     12454     12456
     12453     12450     12454     12459     12454     12459     12465     12462
     12455     12454     12456     12457     12455     12454     12456     12458
     12455     12454     12459     12460     12455     12454     12459     12461
     12455     12454     12459     12465     12456     12454     12459     12460
     12456     12454     12459     12461     12456     12454     12459     12465
     12457     12456     12454     12459     12458     12456     12454     12459
     12459     12465     12462     12463     12459     12465     12462     12464
     12459     12465     12462     12466     12460     12459     12465     12462
     12461     12459     12465     12462     12462     12466     12467     12468
     12462     12466     12467     12469     12462     12466     12467     12470
     12463     12462     12466     12467     12464     12462     12466     12467
     12465     12462     12466     12467     12466     12467     12470     12471
     12466     12467     12470     12472     12466     12467     12470     12478
     12467     12470     12472     12473     12467     12470     12478     12479
     12467     12470     12478     12480     12467     12470     12478     12481
     12468     12467     12470     12471     12468     12467     12470     12472
     12468     12467     12470     12478     12469     12467     12470     12471
     12469     12467     12470     12472     12469     12467     12470     12478
     12470     12472     12473     12474     12470     12472     12473     12475
     12470     12478     12481     12482     12471     12470     12472     12473
     12471     12470     12478     12479     12471     12470     12478     12480
     12471     12470     12478     12481     12472     12470     12478     12479
     12472     12470     12478     12480     12472     12470     12478     12481
     12472     12473     12475     12476     12472     12473     12475     12477
     12472     12473     12475     12487     12473     12472     12470     12478
     12473     12475     12487     12488     12473     12475     12487     12489
     12473     12475     12487     12490     12474     12473     12475     12476
     12474     12473     12475     12477     12474     12473     12475     12487
     12475     12487     12490     12491     12475     12487     12490     12492
     12475     12487     12490     12493     12476     12475     12487     12488
     12476     12475     12487     12489     12476     12475     12487     12490
     12477     12475     12487     12488     12477     12475     12487     12489
     12477     12475     12487     12490     12478     12481     12482     12483
     12478     12481     12482     12484     12479     12478     12481     12482
     12480     12478     12481     12482     12481     12482     12484     12485
     12481     12482     12484     12486     12481     12482     12484     12534
     12482     12484     12534     12535     12482     12484     12534     12536
     12482     12484     12534     12537     12483     12482     12484     12485
     12483     12482     12484     12486     12483     12482     12484     12534
     12484     12534     12537     12538     12484     12534     12537     12539
     12484     12534     12537     12540     12485     12484     12534     12535
     12485     12484     12534     12536     12485     12484     12534     12537
     12486     12484     12534     12535     12486     12484     12534     12536
     12486     12484     12534     12537     12487     12490     12493     12494
     12487     12490     12493     12495     12487     12490     12493     12496
     12488     12487     12490     12491     12488     12487     12490     12492
     12488     12487     12490     12493     12489     12487     12490     12491
     12489     12487     12490     12492     12489     12487     12490     12493
     12490     12493     12496     12497     12490     12493     12496     12498
     12490     12493     12496     12499     12491     12490     12493     12494
     12491     12490     12493     12495     12491     12490     12493     12496
     12492     12490     12493     12494     12492     12490     12493     12495
     12492     12490     12493     12496     12493     12496     12499     12500
     12493     12496     12499     12501     12493     12496     12499     12502
     12494     12493     12496     12497     12494     12493     12496     12498
     12494     12493     12496     12499     12495     12493     12496     12497
     12495     12493     12496     12498     12495     12493     12496     12499
     12496     12499     12502     12503     12496     12499     12502     12504
     12496     12499     12502     12505     12497     12496     12499     12500
     12497     12496     12499     12501     12497     12496     12499     12502
     12498     12496     12499     12500     12498     12496     12499     12501
     12498     12496     12499     12502     12499     12502     12505     12506
     12499     12502     12505     12507     12500     12499     12502     12503
     12500     12499     12502     12504     12500     12499     12502     12505
     12501     12499     12502     12503     12501     12499     12502     12504
     12501     12499     12502     12505     12502     12505     12507     12508
     12502     12505     12507     12509     12503     12502     12505     12506
     12503     12502     12505     12507     12504     12502     12505     12506
     12504     12502     12505     12507     12505     12507     12509     12510
     12505     12507     12509     12511     12505     12507     12509     12512
     12506     12505     12507     12508     12506     12505     12507     12509
     12507     12509     12512     12513     12507     12509     12512     12514
     12507     12509     12512     12515     12508     12507     12509     12510
     12508     12507     12509     12511     12508     12507     12509     12512
     12509     12512     12515     12516     12509     12512     12515     12517
     12509     12512     12515     12518     12510     12509     12512     12513
     12510     12509     12512     12514     12510     12509     12512     12515
     12511     12509     12512     12513     12511     12509     12512     12514
     12511     12509     12512     12515     12512     12515     12518     12519
     12512     12515     12518     12520     12512     12515     12518     12521
     12513     12512     12515     12516     12513     12512     12515     12517
     12513     12512     12515     12518     12514     12512     12515     12516
     12514     12512     12515     12517     12514     12512     12515     12518
     12515     12518     12521     12522     12515     12518     12521     12523
     12515     12518     12521     12524     12516     12515     12518     12519
     12516     12515     12518     12520     12516     12515     12518     12521
     12517     12515     12518     12519     12517     12515     12518     12520
     12517     12515     12518     12521     12518     12521     12524     12525
     12518     12521     12524     12526     12518     12521     12524     12527
     12519     12518     12521     12522     12519     12518     12521     12523
     12519     12518     12521     12524     12520     12518     12521     12522
     12520     12518     12521     12523     12520     12518     12521     12524
     12521     12524     12527     12528     12521     12524     12527     12529
     12521     12524     12527     12530     12522     12521     12524     12525
     12522     12521     12524     12526     12522     12521     12524     12527
     12523     12521     12524     12525     12523     12521     12524     12526
     12523     12521     12524     12527     12524     12527     12530     12531
     12524     12527     12530     12532     12524     12527     12530     12533
     12525     12524     12527     12528     12525     12524     12527     12529
     12525     12524     12527     12530     12526     12524     12527     12528
     12526     12524     12527     12529     12526     12524     12527     12530
     12528     12527     12530     12531     12528     12527     12530     12532
     12528     12527     12530     12533     12529     12527     12530     12531
     12529     12527     12530     12532     12529     12527     12530     12533
     12534     12537     12540     12541     12534     12537     12540     12542
     12534     12537     12540     12543     12535     12534     12537     12538
     12535     12534     12537     12539     12535     12534     12537     12540
     12536     12534     12537     12538     12536     12534     12537     12539
     12536     12534     12537     12540     12537     12540     12543     12544
     12537     12540     12543     12545     12537     12540     12543     12546
     12538     12537     12540     12541     12538     12537     12540     12542
     12538     12537     12540     12543     12539     12537     12540     12541
     12539     12537     12540     12542     12539     12537     12540     12543
     12540     12543     12546     12547     12540     12543     12546     12548
     12540     12543     12546     12549     12541     12540     12543     12544
     12541     12540     12543     12545     12541     12540     12543     12546
     12542     12540     12543     12544     12542     12540     12543     12545
     12542     12540     12543     12546     12543     12546     12549     12550
     12543     12546     12549     12551     12543     12546     12549     12552
     12544     12543     12546     12547     12544     12543     12546     12548
     12544     12543     12546     12549     12545     12543     12546     12547
     12545     12543     12546     12548     12545     12543     12546     12549
     12546     12549     12552     12553     12546     12549     12552     12554
     12546     12549     12552     12555     12547     12546     12549     12550
     12547     12546     12549     12551     12547     12546     12549     12552
     12548     12546     12549     12550     12548     12546     12549     12551
     12548     12546     12549     12552     12549     12552     12555     12556
     12549     12552     12555     12557     12549     12552     12555     12558
     12550     12549     12552     12553     12550     12549     12552     12554
     12550     12549     12552     12555     12551     12549     12552     12553
     12551     12549     12552     12554     12551     12549     12552     12555
     12552     12555     12558     12559     12552     12555     12558     12560
     12552     12555     12558     12561     12553     12552     12555     12556
     12553     12552     12555     12557     12553     12552     12555     12558
     12554     12552     12555     12556     12554     12552     12555     12557
     12554     12552     12555     12558     12555     12558     12561     12562
     12555     12558     12561     12563     12555     12558     12561     12564
     12556     12555     12558     12559     12556     12555     12558     12560
     12556     12555     12558     12561     12557     12555     12558     12559
     12557     12555     12558     12560     12557     12555     12558     12561
     12558     12561     12564     12565     12558     12561     12564     12566
     12558     12561     12564     12567     12559     12558     12561     12562
     12559     12558     12561     12563     12559     12558     12561     12564
     12560     12558     12561     12562     12560     12558     12561     12563
     12560     12558     12561     12564     12561     12564     12567     12568
     12561     12564     12567     12569     12561     12564     12567     12570
     12562     12561     12564     12565     12562     12561     12564     12566
     12562     12561     12564     12567     12563     12561     12564     12565
     12563     12561     12564     12566     12563     12561     12564     12567
     12564     12567     12570     12571     12564     12567     12570     12572
     12564     12567     12570     12573     12565     12564     12567     12568
     12565     12564     12567     12569     12565     12564     12567     12570
     12566     12564     12567     12568     12566     12564     12567     12569
     12566     12564     12567     12570     12567     12570     12573     12574
     12567     12570     12573     12575     12567     12570     12573     12576
     12568     12567     12570     12571     12568     12567     12570     12572
     12568     12567     12570     12573     12569     12567     12570     12571
     12569     12567     12570     12572     12569     12567     12570     12573
     12571     12570     12573     12574     12571     12570     12573     12575
     12571     12570     12573     12576     12572     12570     12573     12574
     12572     12570     12573     12575     12572     12570     12573     12576
     12577     12578     12593     12594     12577     12578     12593     12595
     12577     12578     12593     12599     12578     12577     12581     12582
     12578     12577     12581     12583     12578     12577     12581     12584
     12578     12577     12585     12586     12578     12577     12585     12587
     12578     12577     12585     12588     12578     12577     12589     12590
     12578     12577     12589     12591     12578     12577     12589     12592
     12578     12593     12599     12596     12579     12578     12577     12581
     12579     12578     12577     12585     12579     12578     12577     12589
     12579     12578     12593     12594     12579     12578     12593     12595
     12579     12578     12593     12599     12580     12578     12577     12581
     12580     12578     12577     12585     12580     12578     12577     12589
     12580     12578     12593     12594     12580     12578     12593     12595
     12580     12578     12593     12599     12581     12577     12578     12593
     12581     12577     12585     12586     12581     12577     12585     12587
     12581     12577     12585     12588     12581     12577     12589     12590
     12581     12577     12589     12591     12581     12577     12589     12592
     12582     12581     12577     12585     12582     12581     12577     12589
     12583     12581     12577     12585     12583     12581     12577     12589
     12584     12581     12577     12585     12584     12581     12577     12589
     12585     12577     12578     12593     12585     12577     12589     12590
     12585     12577     12589     12591     12585     12577     12589     12592
     12586     12585     12577     12589     12587     12585     12577     12589
     12588     12585     12577     12589     12589     12577     12578     12593
     12593     12599     12596     12597     12593     12599     12596     12598
     12593     12599     12596     12600     12594     12593     12599     12596
     12595     12593     12599     12596     12596     12600     12601     12602
     12596     12600     12601     12603     12596     12600     12601     12604
     12597     12596     12600     12601     12598     12596     12600     12601
     12599     12596     12600     12601     12600     12601     12604     12605
     12600     12601     12604     12606     12600     12601     12604     12612
     12601     12604     12606     12607     12601     12604     12612     12613
     12601     12604     12612     12614     12601     12604     12612     12615
     12602     12601     12604     12605     12602     12601     12604     12606
     12602     12601     12604     12612     12603     12601     12604     12605
     12603     12601     12604     12606     12603     12601     12604     12612
     12604     12606     12607     12608     12604     12606     12607     12609
     12604     12612     12615     12616     12605     12604     12606     12607
     12605     12604     12612     12613     12605     12604     12612     12614
     12605     12604     12612     12615     12606     12604     12612     12613
     12606     12604     12612     12614     12606     12604     12612     12615
     12606     12607     12609     12610     12606     12607     12609     12611
     12606     12607     12609     12621     12607     12606     12604     12612
     12607     12609     12621     12622     12607     12609     12621     12623
     12607     12609     12621     12624     12608     12607     12609     12610
     12608     12607     12609     12611     12608     12607     12609     12621
     12609     12621     12624     12625     12609     12621     12624     12626
     12609     12621     12624     12627     12610     12609     12621     12622
     12610     12609     12621     12623     12610     12609     12621     12624
     12611     12609     12621     12622     12611     12609     12621     12623
     12611     12609     12621     12624     12612     12615     12616     12617
     12612     12615     12616     12618     12613     12612     12615     12616
     12614     12612     12615     12616     12615     12616     12618     12619
     12615     12616     12618     12620     12615     12616     12618     12668
     12616     12618     12668     12669     12616     12618     12668     12670
     12616     12618     12668     12671     12617     12616     12618     12619
     12617     12616     12618     12620     12617     12616     12618     12668
     12618     12668     12671     12672     12618     12668     12671     12673
     12618     12668     12671     12674     12619     12618     12668     12669
     12619     12618     12668     12670     12619     12618     12668     12671
     12620     12618     12668     12669     12620     12618     12668     12670
     12620     12618     12668     12671     12621     12624     12627     12628
     12621     12624     12627     12629     12621     12624     12627     12630
     12622     12621     12624     12625     12622     12621     12624     12626
     12622     12621     12624     12627     12623     12621     12624     12625
     12623     12621     12624     12626     12623     12621     12624     12627
     12624     12627     12630     12631     12624     12627     12630     12632
     12624     12627     12630     12633     12625     12624     12627     12628
     12625     12624     12627     12629     12625     12624     12627     12630
     12626     12624     12627     12628     12626     12624     12627     12629
     12626     12624     12627     12630     12627     12630     12633     12634
     12627     12630     12633     12635     12627     12630     12633     12636
     12628     12627     12630     12631     12628     12627     12630     12632
     12628     12627     12630     12633     12629     12627     12630     12631
     12629     12627     12630     12632     12629     12627     12630     12633
     12630     12633     12636     12637     12630     12633     12636     12638
     12630     12633     12636     12639     12631     12630     12633     12634
     12631     12630     12633     12635     12631     12630     12633     12636
     12632     12630     12633     12634     12632     12630     12633     12635
     12632     12630     12633     12636     12633     12636     12639     12640
     12633     12636     12639     12641     12634     12633     12636     12637
     12634     12633     12636     12638     12634     12633     12636     12639
     12635     12633     12636     12637     12635     12633     12636     12638
     12635     12633     12636     12639     12636     12639     12641     12642
     12636     12639     12641     12643     12637     12636     12639     12640
     12637     12636     12639     12641     12638     12636     12639     12640
     12638     12636     12639     12641     12639     12641     12643     12644
     12639     12641     12643     12645     12639     12641     12643     12646
     12640     12639     12641     12642     12640     12639     12641     12643
     12641     12643     12646     12647     12641     12643     12646     12648
     12641     12643     12646     12649     12642     12641     12643     12644
     12642     12641     12643     12645     12642     12641     12643     12646
     12643     12646     12649     12650     12643     12646     12649     12651
     12643     12646     12649     12652     12644     12643     12646     12647
     12644     12643     12646     12648     12644     12643     12646     12649
     12645     12643     12646     12647     12645     12643     12646     12648
     12645     12643     12646     12649     12646     12649     12652     12653
     12646     12649     12652     12654     12646     12649     12652     12655
     12647     12646     12649     12650     12647     12646     12649     12651
     12647     12646     12649     12652     12648     12646     12649     12650
     12648     12646     12649     12651     12648     12646     12649     12652
     12649     12652     12655     12656     12649     12652     12655     12657
     12649     12652     12655     12658     12650     12649     12652     12653
     12650     12649     12652     12654     12650     12649     12652     12655
     12651     12649     12652     12653     12651     12649     12652     12654
     12651     12649     12652     12655     12652     12655     12658     12659
     12652     12655     12658     12660     12652     12655     12658     12661
     12653     12652     12655     12656     12653     12652     12655     12657
     12653     12652     12655     12658     12654     12652     12655     12656
     12654     12652     12655     12657     12654     12652     12655     12658
     12655     12658     12661     12662     12655     12658     12661     12663
     12655     12658     12661     12664     12656     12655     12658     12659
     12656     12655     12658     12660     12656     12655     12658     12661
     12657     12655     12658     12659     12657     12655     12658     12660
     12657     12655     12658     12661     12658     12661     12664     12665
     12658     12661     12664     12666     12658     12661     12664     12667
     12659     12658     12661     12662     12659     12658     12661     12663
     12659     12658     12661     12664     12660     12658     12661     12662
     12660     12658     12661     12663     12660     12658     12661     12664
     12662     12661     12664     12665     12662     12661     12664     12666
     12662     12661     12664     12667     12663     12661     12664     12665
     12663     12661     12664     12666     12663     12661     12664     12667
     12668     12671     12674     12675     12668     12671     12674     12676
     12668     12671     12674     12677     12669     12668     12671     12672
     12669     12668     12671     12673     12669     12668     12671     12674
     12670     12668     12671     12672     12670     12668     12671     12673
     12670     12668     12671     12674     12671     12674     12677     12678
     12671     12674     12677     12679     12671     12674     12677     12680
     12672     12671     12674     12675     12672     12671     12674     12676
     12672     12671     12674     12677     12673     12671     12674     12675
     12673     12671     12674     12676     12673     12671     12674     12677
     12674     12677     12680     12681     12674     12677     12680     12682
     12674     12677     12680     12683     12675     12674     12677     12678
     12675     12674     12677     12679     12675     12674     12677     12680
     12676     12674     12677     12678     12676     12674     12677     12679
     12676     12674     12677     12680     12677     12680     12683     12684
     12677     12680     12683     12685     12677     12680     12683     12686
     12678     12677     12680     12681     12678     12677     12680     12682
     12678     12677     12680     12683     12679     12677     12680     12681
     12679     12677     12680     12682     12679     12677     12680     12683
     12680     12683     12686     12687     12680     12683     12686     12688
     12680     12683     12686     12689     12681     12680     12683     12684
     12681     12680     12683     12685     12681     12680     12683     12686
     12682     12680     12683     12684     12682     12680     12683     12685
     12682     12680     12683     12686     12683     12686     12689     12690
     12683     12686     12689     12691     12683     12686     12689     12692
     12684     12683     12686     12687     12684     12683     12686     12688
     12684     12683     12686     12689     12685     12683     12686     12687
     12685     12683     12686     12688     12685     12683     12686     12689
     12686     12689     12692     12693     12686     12689     12692     12694
     12686     12689     12692     12695     12687     12686     12689     12690
     12687     12686     12689     12691     12687     12686     12689     12692
     12688     12686     12689     12690     12688     12686     12689     12691
     12688     12686     12689     12692     12689     12692     12695     12696
     12689     12692     12695     12697     12689     12692     12695     12698
     12690     12689     12692     12693     12690     12689     12692     12694
     12690     12689     12692     12695     12691     12689     12692     12693
     12691     12689     12692     12694     12691     12689     12692     12695
     12692     12695     12698     12699     12692     12695     12698     12700
     12692     12695     12698     12701     12693     12692     12695     12696
     12693     12692     12695     12697     12693     12692     12695     12698
     12694     12692     12695     12696     12694     12692     12695     12697
     12694     12692     12695     12698     12695     12698     12701     12702
     12695     12698     12701     12703     12695     12698     12701     12704
     12696     12695     12698     12699     12696     12695     12698     12700
     12696     12695     12698     12701     12697     12695     12698     12699
     12697     12695     12698     12700     12697     12695     12698     12701
     12698     12701     12704     12705     12698     12701     12704     12706
     12698     12701     12704     12707     12699     12698     12701     12702
     12699     12698     12701     12703     12699     12698     12701     12704
     12700     12698     12701     12702     12700     12698     12701     12703
     12700     12698     12701     12704     12701     12704     12707     12708
     12701     12704     12707     12709     12701     12704     12707     12710
     12702     12701     12704     12705     12702     12701     12704     12706
     12702     12701     12704     12707     12703     12701     12704     12705
     12703     12701     12704     12706     12703     12701     12704     12707
     12705     12704     12707     12708     12705     12704     12707     12709
     12705     12704     12707     12710     12706     12704     12707     12708
     12706     12704     12707     12709     12706     12704     12707     12710
     12711     12712     12727     12728     12711     12712     12727     12729
     12711     12712     12727     12733     12712     12711     12715     12716
     12712     12711     12715     12717     12712     12711     12715     12718
     12712     12711     12719     12720     12712     12711     12719     12721
     12712     12711     12719     12722     12712     12711     12723     12724
     12712     12711     12723     12725     12712     12711     12723     12726
     12712     12727     12733     12730     12713     12712     12711     12715
     12713     12712     12711     12719     12713     12712     12711     12723
     12713     12712     12727     12728     12713     12712     12727     12729
     12713     12712     12727     12733     12714     12712     12711     12715
     12714     12712     12711     12719     12714     12712     12711     12723
     12714     12712     12727     12728     12714     12712     12727     12729
     12714     12712     12727     12733     12715     12711     12712     12727
     12715     12711     12719     12720     12715     12711     12719     12721
     12715     12711     12719     12722     12715     12711     12723     12724
     12715     12711     12723     12725     12715     12711     12723     12726
     12716     12715     12711     12719     12716     12715     12711     12723
     12717     12715     12711     12719     12717     12715     12711     12723
     12718     12715     12711     12719     12718     12715     12711     12723
     12719     12711     12712     12727     12719     12711     12723     12724
     12719     12711     12723     12725     12719     12711     12723     12726
     12720     12719     12711     12723     12721     12719     12711     12723
     12722     12719     12711     12723     12723     12711     12712     12727
     12727     12733     12730     12731     12727     12733     12730     12732
     12727     12733     12730     12734     12728     12727     12733     12730
     12729     12727     12733     12730     12730     12734     12735     12736
     12730     12734     12735     12737     12730     12734     12735     12738
     12731     12730     12734     12735     12732     12730     12734     12735
     12733     12730     12734     12735     12734     12735     12738     12739
     12734     12735     12738     12740     12734     12735     12738     12746
     12735     12738     12740     12741     12735     12738     12746     12747
     12735     12738     12746     12748     12735     12738     12746     12749
     12736     12735     12738     12739     12736     12735     12738     12740
     12736     12735     12738     12746     12737     12735     12738     12739
     12737     12735     12738     12740     12737     12735     12738     12746
     12738     12740     12741     12742     12738     12740     12741     12743
     12738     12746     12749     12750     12739     12738     12740     12741
     12739     12738     12746     12747     12739     12738     12746     12748
     12739     12738     12746     12749     12740     12738     12746     12747
     12740     12738     12746     12748     12740     12738     12746     12749
     12740     12741     12743     12744     12740     12741     12743     12745
     12740     12741     12743     12755     12741     12740     12738     12746
     12741     12743     12755     12756     12741     12743     12755     12757
     12741     12743     12755     12758     12742     12741     12743     12744
     12742     12741     12743     12745     12742     12741     12743     12755
     12743     12755     12758     12759     12743     12755     12758     12760
     12743     12755     12758     12761     12744     12743     12755     12756
     12744     12743     12755     12757     12744     12743     12755     12758
     12745     12743     12755     12756     12745     12743     12755     12757
     12745     12743     12755     12758     12746     12749     12750     12751
     12746     12749     12750     12752     12747     12746     12749     12750
     12748     12746     12749     12750     12749     12750     12752     12753
     12749     12750     12752     12754     12749     12750     12752     12802
     12750     12752     12802     12803     12750     12752     12802     12804
     12750     12752     12802     12805     12751     12750     12752     12753
     12751     12750     12752     12754     12751     12750     12752     12802
     12752     12802     12805     12806     12752     12802     12805     12807
     12752     12802     12805     12808     12753     12752     12802     12803
     12753     12752     12802     12804     12753     12752     12802     12805
     12754     12752     12802     12803     12754     12752     12802     12804
     12754     12752     12802     12805     12755     12758     12761     12762
     12755     12758     12761     12763     12755     12758     12761     12764
     12756     12755     12758     12759     12756     12755     12758     12760
     12756     12755     12758     12761     12757     12755     12758     12759
     12757     12755     12758     12760     12757     12755     12758     12761
     12758     12761     12764     12765     12758     12761     12764     12766
     12758     12761     12764     12767     12759     12758     12761     12762
     12759     12758     12761     12763     12759     12758     12761     12764
     12760     12758     12761     12762     12760     12758     12761     12763
     12760     12758     12761     12764     12761     12764     12767     12768
     12761     12764     12767     12769     12761     12764     12767     12770
     12762     12761     12764     12765     12762     12761     12764     12766
     12762     12761     12764     12767     12763     12761     12764     12765
     12763     12761     12764     12766     12763     12761     12764     12767
     12764     12767     12770     12771     12764     12767     12770     12772
     12764     12767     12770     12773     12765     12764     12767     12768
     12765     12764     12767     12769     12765     12764     12767     12770
     12766     12764     12767     12768     12766     12764     12767     12769
     12766     12764     12767     12770     12767     12770     12773     12774
     12767     12770     12773     12775     12768     12767     12770     12771
     12768     12767     12770     12772     12768     12767     12770     12773
     12769     12767     12770     12771     12769     12767     12770     12772
     12769     12767     12770     12773     12770     12773     12775     12776
     12770     12773     12775     12777     12771     12770     12773     12774
     12771     12770     12773     12775     12772     12770     12773     12774
     12772     12770     12773     12775     12773     12775     12777     12778
     12773     12775     12777     12779     12773     12775     12777     12780
     12774     12773     12775     12776     12774     12773     12775     12777
     12775     12777     12780     12781     12775     12777     12780     12782
     12775     12777     12780     12783     12776     12775     12777     12778
     12776     12775     12777     12779     12776     12775     12777     12780
     12777     12780     12783     12784     12777     12780     12783     12785
     12777     12780     12783     12786     12778     12777     12780     12781
     12778     12777     12780     12782     12778     12777     12780     12783
     12779     12777     12780     12781     12779     12777     12780     12782
     12779     12777     12780     12783     12780     12783     12786     12787
     12780     12783     12786     12788     12780     12783     12786     12789
     12781     12780     12783     12784     12781     12780     12783     12785
     12781     12780     12783     12786     12782     12780     12783     12784
     12782     12780     12783     12785     12782     12780     12783     12786
     12783     12786     12789     12790     12783     12786     12789     12791
     12783     12786     12789     12792     12784     12783     12786     12787
     12784     12783     12786     12788     12784     12783     12786     12789
     12785     12783     12786     12787     12785     12783     12786     12788
     12785     12783     12786     12789     12786     12789     12792     12793
     12786     12789     12792     12794     12786     12789     12792     12795
     12787     12786     12789     12790     12787     12786     12789     12791
     12787     12786     12789     12792     12788     12786     12789     12790
     12788     12786     12789     12791     12788     12786     12789     12792
     12789     12792     12795     12796     12789     12792     12795     12797
     12789     12792     12795     12798     12790     12789     12792     12793
     12790     12789     12792     12794     12790     12789     12792     12795
     12791     12789     12792     12793     12791     12789     12792     12794
     12791     12789     12792     12795     12792     12795     12798     12799
     12792     12795     12798     12800     12792     12795     12798     12801
     12793     12792     12795     12796     12793     12792     12795     12797
     12793     12792     12795     12798     12794     12792     12795     12796
     12794     12792     12795     12797     12794     12792     12795     12798
     12796     12795     12798     12799     12796     12795     12798     12800
     12796     12795     12798     12801     12797     12795     12798     12799
     12797     12795     12798     12800     12797     12795     12798     12801
     12802     12805     12808     12809     12802     12805     12808     12810
     12802     12805     12808     12811     12803     12802     12805     12806
     12803     12802     12805     12807     12803     12802     12805     12808
     12804     12802     12805     12806     12804     12802     12805     12807
     12804     12802     12805     12808     12805     12808     12811     12812
     12805     12808     12811     12813     12805     12808     12811     12814
     12806     12805     12808     12809     12806     12805     12808     12810
     12806     12805     12808     12811     12807     12805     12808     12809
     12807     12805     12808     12810     12807     12805     12808     12811
     12808     12811     12814     12815     12808     12811     12814     12816
     12808     12811     12814     12817     12809     12808     12811     12812
     12809     12808     12811     12813     12809     12808     12811     12814
     12810     12808     12811     12812     12810     12808     12811     12813
     12810     12808     12811     12814     12811     12814     12817     12818
     12811     12814     12817     12819     12811     12814     12817     12820
     12812     12811     12814     12815     12812     12811     12814     12816
     12812     12811     12814     12817     12813     12811     12814     12815
     12813     12811     12814     12816     12813     12811     12814     12817
     12814     12817     12820     12821     12814     12817     12820     12822
     12814     12817     12820     12823     12815     12814     12817     12818
     12815     12814     12817     12819     12815     12814     12817     12820
     12816     12814     12817     12818     12816     12814     12817     12819
     12816     12814     12817     12820     12817     12820     12823     12824
     12817     12820     12823     12825     12817     12820     12823     12826
     12818     12817     12820     12821     12818     12817     12820     12822
     12818     12817     12820     12823     12819     12817     12820     12821
     12819     12817     12820     12822     12819     12817     12820     12823
     12820     12823     12826     12827     12820     12823     12826     12828
     12820     12823     12826     12829     12821     12820     12823     12824
     12821     12820     12823     12825     12821     12820     12823     12826
     12822     12820     12823     12824     12822     12820     12823     12825
     12822     12820     12823     12826     12823     12826     12829     12830
     12823     12826     12829     12831     12823     12826     12829     12832
     12824     12823     12826     12827     12824     12823     12826     12828
     12824     12823     12826     12829     12825     12823     12826     12827
     12825     12823     12826     12828     12825     12823     12826     12829
     12826     12829     12832     12833     12826     12829     12832     12834
     12826     12829     12832     12835     12827     12826     12829     12830
     12827     12826     12829     12831     12827     12826     12829     12832
     12828     12826     12829     12830     12828     12826     12829     12831
     12828     12826     12829     12832     12829     12832     12835     12836
     12829     12832     12835     12837     12829     12832     12835     12838
     12830     12829     12832     12833     12830     12829     12832     12834
     12830     12829     12832     12835     12831     12829     12832     12833
     12831     12829     12832     12834     12831     12829     12832     12835
     12832     12835     12838     12839     12832     12835     12838     12840
     12832     12835     12838     12841     12833     12832     12835     12836
     12833     12832     12835     12837     12833     12832     12835     12838
     12834     12832     12835     12836     12834     12832     12835     12837
     12834     12832     12835     12838     12835     12838     12841     12842
     12835     12838     12841     12843     12835     12838     12841     12844
     12836     12835     12838     12839     12836     12835     12838     12840
     12836     12835     12838     12841     12837     12835     12838     12839
     12837     12835     12838     12840     12837     12835     12838     12841
     12839     12838     12841     12842     12839     12838     12841     12843
     12839     12838     12841     12844     12840     12838     12841     12842
     12840     12838     12841     12843     12840     12838     12841     12844
     12845     12846     12861     12862     12845     12846     12861     12863
     12845     12846     12861     12867     12846     12845     12849     12850
     12846     12845     12849     12851     12846     12845     12849     12852
     12846     12845     12853     12854     12846     12845     12853     12855
     12846     12845     12853     12856     12846     12845     12857     12858
     12846     12845     12857     12859     12846     12845     12857     12860
     12846     12861     12867     12864     12847     12846     12845     12849
     12847     12846     12845     12853     12847     12846     12845     12857
     12847     12846     12861     12862     12847     12846     12861     12863
     12847     12846     12861     12867     12848     12846     12845     12849
     12848     12846     12845     12853     12848     12846     12845     12857
     12848     12846     12861     12862     12848     12846     12861     12863
     12848     12846     12861     12867     12849     12845     12846     12861
     12849     12845     12853     12854     12849     12845     12853     12855
     12849     12845     12853     12856     12849     12845     12857     12858
     12849     12845     12857     12859     12849     12845     12857     12860
     12850     12849     12845     12853     12850     12849     12845     12857
     12851     12849     12845     12853     12851     12849     12845     12857
     12852     12849     12845     12853     12852     12849     12845     12857
     12853     12845     12846     12861     12853     12845     12857     12858
     12853     12845     12857     12859     12853     12845     12857     12860
     12854     12853     12845     12857     12855     12853     12845     12857
     12856     12853     12845     12857     12857     12845     12846     12861
     12861     12867     12864     12865     12861     12867     12864     12866
     12861     12867     12864     12868     12862     12861     12867     12864
     12863     12861     12867     12864     12864     12868     12869     12870
     12864     12868     12869     12871     12864     12868     12869     12872
     12865     12864     12868     12869     12866     12864     12868     12869
     12867     12864     12868     12869     12868     12869     12872     12873
     12868     12869     12872     12874     12868     12869     12872     12880
     12869     12872     12874     12875     12869     12872     12880     12881
     12869     12872     12880     12882     12869     12872     12880     12883
     12870     12869     12872     12873     12870     12869     12872     12874
     12870     12869     12872     12880     12871     12869     12872     12873
     12871     12869     12872     12874     12871     12869     12872     12880
     12872     12874     12875     12876     12872     12874     12875     12877
     12872     12880     12883     12884     12873     12872     12874     12875
     12873     12872     12880     12881     12873     12872     12880     12882
     12873     12872     12880     12883     12874     12872     12880     12881
     12874     12872     12880     12882     12874     12872     12880     12883
     12874     12875     12877     12878     12874     12875     12877     12879
     12874     12875     12877     12889     12875     12874     12872     12880
     12875     12877     12889     12890     12875     12877     12889     12891
     12875     12877     12889     12892     12876     12875     12877     12878
     12876     12875     12877     12879     12876     12875     12877     12889
     12877     12889     12892     12893     12877     12889     12892     12894
     12877     12889     12892     12895     12878     12877     12889     12890
     12878     12877     12889     12891     12878     12877     12889     12892
     12879     12877     12889     12890     12879     12877     12889     12891
     12879     12877     12889     12892     12880     12883     12884     12885
     12880     12883     12884     12886     12881     12880     12883     12884
     12882     12880     12883     12884     12883     12884     12886     12887
     12883     12884     12886     12888     12883     12884     12886     12936
     12884     12886     12936     12937     12884     12886     12936     12938
     12884     12886     12936     12939     12885     12884     12886     12887
     12885     12884     12886     12888     12885     12884     12886     12936
     12886     12936     12939     12940     12886     12936     12939     12941
     12886     12936     12939     12942     12887     12886     12936     12937
     12887     12886     12936     12938     12887     12886     12936     12939
     12888     12886     12936     12937     12888     12886     12936     12938
     12888     12886     12936     12939     12889     12892     12895     12896
     12889     12892     12895     12897     12889     12892     12895     12898
     12890     12889     12892     12893     12890     12889     12892     12894
     12890     12889     12892     12895     12891     12889     12892     12893
     12891     12889     12892     12894     12891     12889     12892     12895
     12892     12895     12898     12899     12892     12895     12898     12900
     12892     12895     12898     12901     12893     12892     12895     12896
     12893     12892     12895     12897     12893     12892     12895     12898
     12894     12892     12895     12896     12894     12892     12895     12897
     12894     12892     12895     12898     12895     12898     12901     12902
     12895     12898     12901     12903     12895     12898     12901     12904
     12896     12895     12898     12899     12896     12895     12898     12900
     12896     12895     12898     12901     12897     12895     12898     12899
     12897     12895     12898     12900     12897     12895     12898     12901
     12898     12901     12904     12905     12898     12901     12904     12906
     12898     12901     12904     12907     12899     12898     12901     12902
     12899     12898     12901     12903     12899     12898     12901     12904
     12900     12898     12901     12902     12900     12898     12901     12903
     12900     12898     12901     12904     12901     12904     12907     12908
     12901     12904     12907     12909     12902     12901     12904     12905
     12902     12901     12904     12906     12902     12901     12904     12907
     12903     12901     12904     12905     12903     12901     12904     12906
     12903     12901     12904     12907     12904     12907     12909     12910
     12904     12907     12909     12911     12905     12904     12907     12908
     12905     12904     12907     12909     12906     12904     12907     12908
     12906     12904     12907     12909     12907     12909     12911     12912
     12907     12909     12911     12913     12907     12909     12911     12914
     12908     12907     12909     12910     12908     12907     12909     12911
     12909     12911     12914     12915     12909     12911     12914     12916
     12909     12911     12914     12917     12910     12909     12911     12912
     12910     12909     12911     12913     12910     12909     12911     12914
     12911     12914     12917     12918     12911     12914     12917     12919
     12911     12914     12917     12920     12912     12911     12914     12915
     12912     12911     12914     12916     12912     12911     12914     12917
     12913     12911     12914     12915     12913     12911     12914     12916
     12913     12911     12914     12917     12914     12917     12920     12921
     12914     12917     12920     12922     12914     12917     12920     12923
     12915     12914     12917     12918     12915     12914     12917     12919
     12915     12914     12917     12920     12916     12914     12917     12918
     12916     12914     12917     12919     12916     12914     12917     12920
     12917     12920     12923     12924     12917     12920     12923     12925
     12917     12920     12923     12926     12918     12917     12920     12921
     12918     12917     12920     12922     12918     12917     12920     12923
     12919     12917     12920     12921     12919     12917     12920     12922
     12919     12917     12920     12923     12920     12923     12926     12927
     12920     12923     12926     12928     12920     12923     12926     12929
     12921     12920     12923     12924     12921     12920     12923     12925
     12921     12920     12923     12926     12922     12920     12923     12924
     12922     12920     12923     12925     12922     12920     12923     12926
     12923     12926     12929     12930     12923     12926     12929     12931
     12923     12926     12929     12932     12924     12923     12926     12927
     12924     12923     12926     12928     12924     12923     12926     12929
     12925     12923     12926     12927     12925     12923     12926     12928
     12925     12923     12926     12929     12926     12929     12932     12933
     12926     12929     12932     12934     12926     12929     12932     12935
     12927     12926     12929     12930     12927     12926     12929     12931
     12927     12926     12929     12932     12928     12926     12929     12930
     12928     12926     12929     12931     12928     12926     12929     12932
     12930     12929     12932     12933     12930     12929     12932     12934
     12930     12929     12932     12935     12931     12929     12932     12933
     12931     12929     12932     12934     12931     12929     12932     12935
     12936     12939     12942     12943     12936     12939     12942     12944
     12936     12939     12942     12945     12937     12936     12939     12940
     12937     12936     12939     12941     12937     12936     12939     12942
     12938     12936     12939     12940     12938     12936     12939     12941
     12938     12936     12939     12942     12939     12942     12945     12946
     12939     12942     12945     12947     12939     12942     12945     12948
     12940     12939     12942     12943     12940     12939     12942     12944
     12940     12939     12942     12945     12941     12939     12942     12943
     12941     12939     12942     12944     12941     12939     12942     12945
     12942     12945     12948     12949     12942     12945     12948     12950
     12942     12945     12948     12951     12943     12942     12945     12946
     12943     12942     12945     12947     12943     12942     12945     12948
     12944     12942     12945     12946     12944     12942     12945     12947
     12944     12942     12945     12948     12945     12948     12951     12952
     12945     12948     12951     12953     12945     12948     12951     12954
     12946     12945     12948     12949     12946     12945     12948     12950
     12946     12945     12948     12951     12947     12945     12948     12949
     12947     12945     12948     12950     12947     12945     12948     12951
     12948     12951     12954     12955     12948     12951     12954     12956
     12948     12951     12954     12957     12949     12948     12951     12952
     12949     12948     12951     12953     12949     12948     12951     12954
     12950     12948     12951     12952     12950     12948     12951     12953
     12950     12948     12951     12954     12951     12954     12957     12958
     12951     12954     12957     12959     12951     12954     12957     12960
     12952     12951     12954     12955     12952     12951     12954     12956
     12952     12951     12954     12957     12953     12951     12954     12955
     12953     12951     12954     12956     12953     12951     12954     12957
     12954     12957     12960     12961     12954     12957     12960     12962
     12954     12957     12960     12963     12955     12954     12957     12958
     12955     12954     12957     12959     12955     12954     12957     12960
     12956     12954     12957     12958     12956     12954     12957     12959
     12956     12954     12957     12960     12957     12960     12963     12964
     12957     12960     12963     12965     12957     12960     12963     12966
     12958     12957     12960     12961     12958     12957     12960     12962
     12958     12957     12960     12963     12959     12957     12960     12961
     12959     12957     12960     12962     12959     12957     12960     12963
     12960     12963     12966     12967     12960     12963     12966     12968
     12960     12963     12966     12969     12961     12960     12963     12964
     12961     12960     12963     12965     12961     12960     12963     12966
     12962     12960     12963     12964     12962     12960     12963     12965
     12962     12960     12963     12966     12963     12966     12969     12970
     12963     12966     12969     12971     12963     12966     12969     12972
     12964     12963     12966     12967     12964     12963     12966     12968
     12964     12963     12966     12969     12965     12963     12966     12967
     12965     12963     12966     12968     12965     12963     12966     12969
     12966     12969     12972     12973     12966     12969     12972     12974
     12966     12969     12972     12975     12967     12966     12969     12970
     12967     12966     12969     12971     12967     12966     12969     12972
     12968     12966     12969     12970     12968     12966     12969     12971
     12968     12966     12969     12972     12969     12972     12975     12976
     12969     12972     12975     12977     12969     12972     12975     12978
     12970     12969     12972     12973     12970     12969     12972     12974
     12970     12969     12972     12975     12971     12969     12972     12973
     12971     12969     12972     12974     12971     12969     12972     12975
     12973     12972     12975     12976     12973     12972     12975     12977
     12973     12972     12975     12978     12974     12972     12975     12976
     12974     12972     12975     12977     12974     12972     12975     12978
     12979     12980     12995     12996     12979     12980     12995     12997
     12979     12980     12995     13001     12980     12979     12983     12984
     12980     12979     12983     12985     12980     12979     12983     12986
     12980     12979     12987     12988     12980     12979     12987     12989
     12980     12979     12987     12990     12980     12979     12991     12992
     12980     12979     12991     12993     12980     12979     12991     12994
     12980     12995     13001     12998     12981     12980     12979     12983
     12981     12980     12979     12987     12981     12980     12979     12991
     12981     12980     12995     12996     12981     12980     12995     12997
     12981     12980     12995     13001     12982     12980     12979     12983
     12982     12980     12979     12987     12982     12980     12979     12991
     12982     12980     12995     12996     12982     12980     12995     12997
     12982     12980     12995     13001     12983     12979     12980     12995
     12983     12979     12987     12988     12983     12979     12987     12989
     12983     12979     12987     12990     12983     12979     12991     12992
     12983     12979     12991     12993     12983     12979     12991     12994
     12984     12983     12979     12987     12984     12983     12979     12991
     12985     12983     12979     12987     12985     12983     12979     12991
     12986     12983     12979     12987     12986     12983     12979     12991
     12987     12979     12980     12995     12987     12979     12991     12992
     12987     12979     12991     12993     12987     12979     12991     12994
     12988     12987     12979     12991     12989     12987     12979     12991
     12990     12987     12979     12991     12991     12979     12980     12995
     12995     13001     12998     12999     12995     13001     12998     13000
     12995     13001     12998     13002     12996     12995     13001     12998
     12997     12995     13001     12998     12998     13002     13003     13004
     12998     13002     13003     13005     12998     13002     13003     13006
     12999     12998     13002     13003     13000     12998     13002     13003
     13001     12998     13002     13003     13002     13003     13006     13007
     13002     13003     13006     13008     13002     13003     13006     13014
     13003     13006     13008     13009     13003     13006     13014     13015
     13003     13006     13014     13016     13003     13006     13014     13017
     13004     13003     13006     13007     13004     13003     13006     13008
     13004     13003     13006     13014     13005     13003     13006     13007
     13005     13003     13006     13008     13005     13003     13006     13014
     13006     13008     13009     13010     13006     13008     13009     13011
     13006     13014     13017     13018     13007     13006     13008     13009
     13007     13006     13014     13015     13007     13006     13014     13016
     13007     13006     13014     13017     13008     13006     13014     13015
     13008     13006     13014     13016     13008     13006     13014     13017
     13008     13009     13011     13012     13008     13009     13011     13013
     13008     13009     13011     13023     13009     13008     13006     13014
     13009     13011     13023     13024     13009     13011     13023     13025
     13009     13011     13023     13026     13010     13009     13011     13012
     13010     13009     13011     13013     13010     13009     13011     13023
     13011     13023     13026     13027     13011     13023     13026     13028
     13011     13023     13026     13029     13012     13011     13023     13024
     13012     13011     13023     13025     13012     13011     13023     13026
     13013     13011     13023     13024     13013     13011     13023     13025
     13013     13011     13023     13026     13014     13017     13018     13019
     13014     13017     13018     13020     13015     13014     13017     13018
     13016     13014     13017     13018     13017     13018     13020     13021
     13017     13018     13020     13022     13017     13018     13020     13070
     13018     13020     13070     13071     13018     13020     13070     13072
     13018     13020     13070     13073     13019     13018     13020     13021
     13019     13018     13020     13022     13019     13018     13020     13070
     13020     13070     13073     13074     13020     13070     13073     13075
     13020     13070     13073     13076     13021     13020     13070     13071
     13021     13020     13070     13072     13021     13020     13070     13073
     13022     13020     13070     13071     13022     13020     13070     13072
     13022     13020     13070     13073     13023     13026     13029     13030
     13023     13026     13029     13031     13023     13026     13029     13032
     13024     13023     13026     13027     13024     13023     13026     13028
     13024     13023     13026     13029     13025     13023     13026     13027
     13025     13023     13026     13028     13025     13023     13026     13029
     13026     13029     13032     13033     13026     13029     13032     13034
     13026     13029     13032     13035     13027     13026     13029     13030
     13027     13026     13029     13031     13027     13026     13029     13032
     13028     13026     13029     13030     13028     13026     13029     13031
     13028     13026     13029     13032     13029     13032     13035     13036
     13029     13032     13035     13037     13029     13032     13035     13038
     13030     13029     13032     13033     13030     13029     13032     13034
     13030     13029     13032     13035     13031     13029     13032     13033
     13031     13029     13032     13034     13031     13029     13032     13035
     13032     13035     13038     13039     13032     13035     13038     13040
     13032     13035     13038     13041     13033     13032     13035     13036
     13033     13032     13035     13037     13033     13032     13035     13038
     13034     13032     13035     13036     13034     13032     13035     13037
     13034     13032     13035     13038     13035     13038     13041     13042
     13035     13038     13041     13043     13036     13035     13038     13039
     13036     13035     13038     13040     13036     13035     13038     13041
     13037     13035     13038     13039     13037     13035     13038     13040
     13037     13035     13038     13041     13038     13041     13043     13044
     13038     13041     13043     13045     13039     13038     13041     13042
     13039     13038     13041     13043     13040     13038     13041     13042
     13040     13038     13041     13043     13041     13043     13045     13046
     13041     13043     13045     13047     13041     13043     13045     13048
     13042     13041     13043     13044     13042     13041     13043     13045
     13043     13045     13048     13049     13043     13045     13048     13050
     13043     13045     13048     13051     13044     13043     13045     13046
     13044     13043     13045     13047     13044     13043     13045     13048
     13045     13048     13051     13052     13045     13048     13051     13053
     13045     13048     13051     13054     13046     13045     13048     13049
     13046     13045     13048     13050     13046     13045     13048     13051
     13047     13045     13048     13049     13047     13045     13048     13050
     13047     13045     13048     13051     13048     13051     13054     13055
     13048     13051     13054     13056     13048     13051     13054     13057
     13049     13048     13051     13052     13049     13048     13051     13053
     13049     13048     13051     13054     13050     13048     13051     13052
     13050     13048     13051     13053     13050     13048     13051     13054
     13051     13054     13057     13058     13051     13054     13057     13059
     13051     13054     13057     13060     13052     13051     13054     13055
     13052     13051     13054     13056     13052     13051     13054     13057
     13053     13051     13054     13055     13053     13051     13054     13056
     13053     13051     13054     13057     13054     13057     13060     13061
     13054     13057     13060     13062     13054     13057     13060     13063
     13055     13054     13057     13058     13055     13054     13057     13059
     13055     13054     13057     13060     13056     13054     13057     13058
     13056     13054     13057     13059     13056     13054     13057     13060
     13057     13060     13063     13064     13057     13060     13063     13065
     13057     13060     13063     13066     13058     13057     13060     13061
     13058     13057     13060     13062     13058     13057     13060     13063
     13059     13057     13060     13061     13059     13057     13060     13062
     13059     13057     13060     13063     13060     13063     13066     13067
     13060     13063     13066     13068     13060     13063     13066     13069
     13061     13060     13063     13064     13061     13060     13063     13065
     13061     13060     13063     13066     13062     13060     13063     13064
     13062     13060     13063     13065     13062     13060     13063     13066
     13064     13063     13066     13067     13064     13063     13066     13068
     13064     13063     13066     13069     13065     13063     13066     13067
     13065     13063     13066     13068     13065     13063     13066     13069
     13070     13073     13076     13077     13070     13073     13076     13078
     13070     13073     13076     13079     13071     13070     13073     13074
     13071     13070     13073     13075     13071     13070     13073     13076
     13072     13070     13073     13074     13072     13070     13073     13075
     13072     13070     13073     13076     13073     13076     13079     13080
     13073     13076     13079     13081     13073     13076     13079     13082
     13074     13073     13076     13077     13074     13073     13076     13078
     13074     13073     13076     13079     13075     13073     13076     13077
     13075     13073     13076     13078     13075     13073     13076     13079
     13076     13079     13082     13083     13076     13079     13082     13084
     13076     13079     13082     13085     13077     13076     13079     13080
     13077     13076     13079     13081     13077     13076     13079     13082
     13078     13076     13079     13080     13078     13076     13079     13081
     13078     13076     13079     13082     13079     13082     13085     13086
     13079     13082     13085     13087     13079     13082     13085     13088
     13080     13079     13082     13083     13080     13079     13082     13084
     13080     13079     13082     13085     13081     13079     13082     13083
     13081     13079     13082     13084     13081     13079     13082     13085
     13082     13085     13088     13089     13082     13085     13088     13090
     13082     13085     13088     13091     13083     13082     13085     13086
     13083     13082     13085     13087     13083     13082     13085     13088
     13084     13082     13085     13086     13084     13082     13085     13087
     13084     13082     13085     13088     13085     13088     13091     13092
     13085     13088     13091     13093     13085     13088     13091     13094
     13086     13085     13088     13089     13086     13085     13088     13090
     13086     13085     13088     13091     13087     13085     13088     13089
     13087     13085     13088     13090     13087     13085     13088     13091
     13088     13091     13094     13095     13088     13091     13094     13096
     13088     13091     13094     13097     13089     13088     13091     13092
     13089     13088     13091     13093     13089     13088     13091     13094
     13090     13088     13091     13092     13090     13088     13091     13093
     13090     13088     13091     13094     13091     13094     13097     13098
     13091     13094     13097     13099     13091     13094     13097     13100
     13092     13091     13094     13095     13092     13091     13094     13096
     13092     13091     13094     13097     13093     13091     13094     13095
     13093     13091     13094     13096     13093     13091     13094     13097
     13094     13097     13100     13101     13094     13097     13100     13102
     13094     13097     13100     13103     13095     13094     13097     13098
     13095     13094     13097     13099     13095     13094     13097     13100
     13096     13094     13097     13098     13096     13094     13097     13099
     13096     13094     13097     13100     13097     13100     13103     13104
     13097     13100     13103     13105     13097     13100     13103     13106
     13098     13097     13100     13101     13098     13097     13100     13102
     13098     13097     13100     13103     13099     13097     13100     13101
     13099     13097     13100     13102     13099     13097     13100     13103
     13100     13103     13106     13107     13100     13103     13106     13108
     13100     13103     13106     13109     13101     13100     13103     13104
     13101     13100     13103     13105     13101     13100     13103     13106
     13102     13100     13103     13104     13102     13100     13103     13105
     13102     13100     13103     13106     13103     13106     13109     13110
     13103     13106     13109     13111     13103     13106     13109     13112
     13104     13103     13106     13107     13104     13103     13106     13108
     13104     13103     13106     13109     13105     13103     13106     13107
     13105     13103     13106     13108     13105     13103     13106     13109
     13107     13106     13109     13110     13107     13106     13109     13111
     13107     13106     13109     13112     13108     13106     13109     13110
     13108     13106     13109     13111     13108     13106     13109     13112
     13113     13114     13129     13130     13113     13114     13129     13131
     13113     13114     13129     13135     13114     13113     13117     13118
     13114     13113     13117     13119     13114     13113     13117     13120
     13114     13113     13121     13122     13114     13113     13121     13123
     13114     13113     13121     13124     13114     13113     13125     13126
     13114     13113     13125     13127     13114     13113     13125     13128
     13114     13129     13135     13132     13115     13114     13113     13117
     13115     13114     13113     13121     13115     13114     13113     13125
     13115     13114     13129     13130     13115     13114     13129     13131
     13115     13114     13129     13135     13116     13114     13113     13117
     13116     13114     13113     13121     13116     13114     13113     13125
     13116     13114     13129     13130     13116     13114     13129     13131
     13116     13114     13129     13135     13117     13113     13114     13129
     13117     13113     13121     13122     13117     13113     13121     13123
     13117     13113     13121     13124     13117     13113     13125     13126
     13117     13113     13125     13127     13117     13113     13125     13128
     13118     13117     13113     13121     13118     13117     13113     13125
     13119     13117     13113     13121     13119     13117     13113     13125
     13120     13117     13113     13121     13120     13117     13113     13125
     13121     13113     13114     13129     13121     13113     13125     13126
     13121     13113     13125     13127     13121     13113     13125     13128
     13122     13121     13113     13125     13123     13121     13113     13125
     13124     13121     13113     13125     13125     13113     13114     13129
     13129     13135     13132     13133     13129     13135     13132     13134
     13129     13135     13132     13136     13130     13129     13135     13132
     13131     13129     13135     13132     13132     13136     13137     13138
     13132     13136     13137     13139     13132     13136     13137     13140
     13133     13132     13136     13137     13134     13132     13136     13137
     13135     13132     13136     13137     13136     13137     13140     13141
     13136     13137     13140     13142     13136     13137     13140     13148
     13137     13140     13142     13143     13137     13140     13148     13149
     13137     13140     13148     13150     13137     13140     13148     13151
     13138     13137     13140     13141     13138     13137     13140     13142
     13138     13137     13140     13148     13139     13137     13140     13141
     13139     13137     13140     13142     13139     13137     13140     13148
     13140     13142     13143     13144     13140     13142     13143     13145
     13140     13148     13151     13152     13141     13140     13142     13143
     13141     13140     13148     13149     13141     13140     13148     13150
     13141     13140     13148     13151     13142     13140     13148     13149
     13142     13140     13148     13150     13142     13140     13148     13151
     13142     13143     13145     13146     13142     13143     13145     13147
     13142     13143     13145     13157     13143     13142     13140     13148
     13143     13145     13157     13158     13143     13145     13157     13159
     13143     13145     13157     13160     13144     13143     13145     13146
     13144     13143     13145     13147     13144     13143     13145     13157
     13145     13157     13160     13161     13145     13157     13160     13162
     13145     13157     13160     13163     13146     13145     13157     13158
     13146     13145     13157     13159     13146     13145     13157     13160
     13147     13145     13157     13158     13147     13145     13157     13159
     13147     13145     13157     13160     13148     13151     13152     13153
     13148     13151     13152     13154     13149     13148     13151     13152
     13150     13148     13151     13152     13151     13152     13154     13155
     13151     13152     13154     13156     13151     13152     13154     13204
     13152     13154     13204     13205     13152     13154     13204     13206
     13152     13154     13204     13207     13153     13152     13154     13155
     13153     13152     13154     13156     13153     13152     13154     13204
     13154     13204     13207     13208     13154     13204     13207     13209
     13154     13204     13207     13210     13155     13154     13204     13205
     13155     13154     13204     13206     13155     13154     13204     13207
     13156     13154     13204     13205     13156     13154     13204     13206
     13156     13154     13204     13207     13157     13160     13163     13164
     13157     13160     13163     13165     13157     13160     13163     13166
     13158     13157     13160     13161     13158     13157     13160     13162
     13158     13157     13160     13163     13159     13157     13160     13161
     13159     13157     13160     13162     13159     13157     13160     13163
     13160     13163     13166     13167     13160     13163     13166     13168
     13160     13163     13166     13169     13161     13160     13163     13164
     13161     13160     13163     13165     13161     13160     13163     13166
     13162     13160     13163     13164     13162     13160     13163     13165
     13162     13160     13163     13166     13163     13166     13169     13170
     13163     13166     13169     13171     13163     13166     13169     13172
     13164     13163     13166     13167     13164     13163     13166     13168
     13164     13163     13166     13169     13165     13163     13166     13167
     13165     13163     13166     13168     13165     13163     13166     13169
     13166     13169     13172     13173     13166     13169     13172     13174
     13166     13169     13172     13175     13167     13166     13169     13170
     13167     13166     13169     13171     13167     13166     13169     13172
     13168     13166     13169     13170     13168     13166     13169     13171
     13168     13166     13169     13172     13169     13172     13175     13176
     13169     13172     13175     13177     13170     13169     13172     13173
     13170     13169     13172     13174     13170     13169     13172     13175
     13171     13169     13172     13173     13171     13169     13172     13174
     13171     13169     13172     13175     13172     13175     13177     13178
     13172     13175     13177     13179     13173     13172     13175     13176
     13173     13172     13175     13177     13174     13172     13175     13176
     13174     13172     13175     13177     13175     13177     13179     13180
     13175     13177     13179     13181     13175     13177     13179     13182
     13176     13175     13177     13178     13176     13175     13177     13179
     13177     13179     13182     13183     13177     13179     13182     13184
     13177     13179     13182     13185     13178     13177     13179     13180
     13178     13177     13179     13181     13178     13177     13179     13182
     13179     13182     13185     13186     13179     13182     13185     13187
     13179     13182     13185     13188     13180     13179     13182     13183
     13180     13179     13182     13184     13180     13179     13182     13185
     13181     13179     13182     13183     13181     13179     13182     13184
     13181     13179     13182     13185     13182     13185     13188     13189
     13182     13185     13188     13190     13182     13185     13188     13191
     13183     13182     13185     13186     13183     13182     13185     13187
     13183     13182     13185     13188     13184     13182     13185     13186
     13184     13182     13185     13187     13184     13182     13185     13188
     13185     13188     13191     13192     13185     13188     13191     13193
     13185     13188     13191     13194     13186     13185     13188     13189
     13186     13185     13188     13190     13186     13185     13188     13191
     13187     13185     13188     13189     13187     13185     13188     13190
     13187     13185     13188     13191     13188     13191     13194     13195
     13188     13191     13194     13196     13188     13191     13194     13197
     13189     13188     13191     13192     13189     13188     13191     13193
     13189     13188     13191     13194     13190     13188     13191     13192
     13190     13188     13191     13193     13190     13188     13191     13194
     13191     13194     13197     13198     13191     13194     13197     13199
     13191     13194     13197     13200     13192     13191     13194     13195
     13192     13191     13194     13196     13192     13191     13194     13197
     13193     13191     13194     13195     13193     13191     13194     13196
     13193     13191     13194     13197     13194     13197     13200     13201
     13194     13197     13200     13202     13194     13197     13200     13203
     13195     13194     13197     13198     13195     13194     13197     13199
     13195     13194     13197     13200     13196     13194     13197     13198
     13196     13194     13197     13199     13196     13194     13197     13200
     13198     13197     13200     13201     13198     13197     13200     13202
     13198     13197     13200     13203     13199     13197     13200     13201
     13199     13197     13200     13202     13199     13197     13200     13203
     13204     13207     13210     13211     13204     13207     13210     13212
     13204     13207     13210     13213     13205     13204     13207     13208
     13205     13204     13207     13209     13205     13204     13207     13210
     13206     13204     13207     13208     13206     13204     13207     13209
     13206     13204     13207     13210     13207     13210     13213     13214
     13207     13210     13213     13215     13207     13210     13213     13216
     13208     13207     13210     13211     13208     13207     13210     13212
     13208     13207     13210     13213     13209     13207     13210     13211
     13209     13207     13210     13212     13209     13207     13210     13213
     13210     13213     13216     13217     13210     13213     13216     13218
     13210     13213     13216     13219     13211     13210     13213     13214
     13211     13210     13213     13215     13211     13210     13213     13216
     13212     13210     13213     13214     13212     13210     13213     13215
     13212     13210     13213     13216     13213     13216     13219     13220
     13213     13216     13219     13221     13213     13216     13219     13222
     13214     13213     13216     13217     13214     13213     13216     13218
     13214     13213     13216     13219     13215     13213     13216     13217
     13215     13213     13216     13218     13215     13213     13216     13219
     13216     13219     13222     13223     13216     13219     13222     13224
     13216     13219     13222     13225     13217     13216     13219     13220
     13217     13216     13219     13221     13217     13216     13219     13222
     13218     13216     13219     13220     13218     13216     13219     13221
     13218     13216     13219     13222     13219     13222     13225     13226
     13219     13222     13225     13227     13219     13222     13225     13228
     13220     13219     13222     13223     13220     13219     13222     13224
     13220     13219     13222     13225     13221     13219     13222     13223
     13221     13219     13222     13224     13221     13219     13222     13225
     13222     13225     13228     13229     13222     13225     13228     13230
     13222     13225     13228     13231     13223     13222     13225     13226
     13223     13222     13225     13227     13223     13222     13225     13228
     13224     13222     13225     13226     13224     13222     13225     13227
     13224     13222     13225     13228     13225     13228     13231     13232
     13225     13228     13231     13233     13225     13228     13231     13234
     13226     13225     13228     13229     13226     13225     13228     13230
     13226     13225     13228     13231     13227     13225     13228     13229
     13227     13225     13228     13230     13227     13225     13228     13231
     13228     13231     13234     13235     13228     13231     13234     13236
     13228     13231     13234     13237     13229     13228     13231     13232
     13229     13228     13231     13233     13229     13228     13231     13234
     13230     13228     13231     13232     13230     13228     13231     13233
     13230     13228     13231     13234     13231     13234     13237     13238
     13231     13234     13237     13239     13231     13234     13237     13240
     13232     13231     13234     13235     13232     13231     13234     13236
     13232     13231     13234     13237     13233     13231     13234     13235
     13233     13231     13234     13236     13233     13231     13234     13237
     13234     13237     13240     13241     13234     13237     13240     13242
     13234     13237     13240     13243     13235     13234     13237     13238
     13235     13234     13237     13239     13235     13234     13237     13240
     13236     13234     13237     13238     13236     13234     13237     13239
     13236     13234     13237     13240     13237     13240     13243     13244
     13237     13240     13243     13245     13237     13240     13243     13246
     13238     13237     13240     13241     13238     13237     13240     13242
     13238     13237     13240     13243     13239     13237     13240     13241
     13239     13237     13240     13242     13239     13237     13240     13243
     13241     13240     13243     13244     13241     13240     13243     13245
     13241     13240     13243     13246     13242     13240     13243     13244
     13242     13240     13243     13245     13242     13240     13243     13246
     13247     13248     13263     13264     13247     13248     13263     13265
     13247     13248     13263     13269     13248     13247     13251     13252
     13248     13247     13251     13253     13248     13247     13251     13254
     13248     13247     13255     13256     13248     13247     13255     13257
     13248     13247     13255     13258     13248     13247     13259     13260
     13248     13247     13259     13261     13248     13247     13259     13262
     13248     13263     13269     13266     13249     13248     13247     13251
     13249     13248     13247     13255     13249     13248     13247     13259
     13249     13248     13263     13264     13249     13248     13263     13265
     13249     13248     13263     13269     13250     13248     13247     13251
     13250     13248     13247     13255     13250     13248     13247     13259
     13250     13248     13263     13264     13250     13248     13263     13265
     13250     13248     13263     13269     13251     13247     13248     13263
     13251     13247     13255     13256     13251     13247     13255     13257
     13251     13247     13255     13258     13251     13247     13259     13260
     13251     13247     13259     13261     13251     13247     13259     13262
     13252     13251     13247     13255     13252     13251     13247     13259
     13253     13251     13247     13255     13253     13251     13247     13259
     13254     13251     13247     13255     13254     13251     13247     13259
     13255     13247     13248     13263     13255     13247     13259     13260
     13255     13247     13259     13261     13255     13247     13259     13262
     13256     13255     13247     13259     13257     13255     13247     13259
     13258     13255     13247     13259     13259     13247     13248     13263
     13263     13269     13266     13267     13263     13269     13266     13268
     13263     13269     13266     13270     13264     13263     13269     13266
     13265     13263     13269     13266     13266     13270     13271     13272
     13266     13270     13271     13273     13266     13270     13271     13274
     13267     13266     13270     13271     13268     13266     13270     13271
     13269     13266     13270     13271     13270     13271     13274     13275
     13270     13271     13274     13276     13270     13271     13274     13282
     13271     13274     13276     13277     13271     13274     13282     13283
     13271     13274     13282     13284     13271     13274     13282     13285
     13272     13271     13274     13275     13272     13271     13274     13276
     13272     13271     13274     13282     13273     13271     13274     13275
     13273     13271     13274     13276     13273     13271     13274     13282
     13274     13276     13277     13278     13274     13276     13277     13279
     13274     13282     13285     13286     13275     13274     13276     13277
     13275     13274     13282     13283     13275     13274     13282     13284
     13275     13274     13282     13285     13276     13274     13282     13283
     13276     13274     13282     13284     13276     13274     13282     13285
     13276     13277     13279     13280     13276     13277     13279     13281
     13276     13277     13279     13291     13277     13276     13274     13282
     13277     13279     13291     13292     13277     13279     13291     13293
     13277     13279     13291     13294     13278     13277     13279     13280
     13278     13277     13279     13281     13278     13277     13279     13291
     13279     13291     13294     13295     13279     13291     13294     13296
     13279     13291     13294     13297     13280     13279     13291     13292
     13280     13279     13291     13293     13280     13279     13291     13294
     13281     13279     13291     13292     13281     13279     13291     13293
     13281     13279     13291     13294     13282     13285     13286     13287
     13282     13285     13286     13288     13283     13282     13285     13286
     13284     13282     13285     13286     13285     13286     13288     13289
     13285     13286     13288     13290     13285     13286     13288     13338
     13286     13288     13338     13339     13286     13288     13338     13340
     13286     13288     13338     13341     13287     13286     13288     13289
     13287     13286     13288     13290     13287     13286     13288     13338
     13288     13338     13341     13342     13288     13338     13341     13343
     13288     13338     13341     13344     13289     13288     13338     13339
     13289     13288     13338     13340     13289     13288     13338     13341
     13290     13288     13338     13339     13290     13288     13338     13340
     13290     13288     13338     13341     13291     13294     13297     13298
     13291     13294     13297     13299     13291     13294     13297     13300
     13292     13291     13294     13295     13292     13291     13294     13296
     13292     13291     13294     13297     13293     13291     13294     13295
     13293     13291     13294     13296     13293     13291     13294     13297
     13294     13297     13300     13301     13294     13297     13300     13302
     13294     13297     13300     13303     13295     13294     13297     13298
     13295     13294     13297     13299     13295     13294     13297     13300
     13296     13294     13297     13298     13296     13294     13297     13299
     13296     13294     13297     13300     13297     13300     13303     13304
     13297     13300     13303     13305     13297     13300     13303     13306
     13298     13297     13300     13301     13298     13297     13300     13302
     13298     13297     13300     13303     13299     13297     13300     13301
     13299     13297     13300     13302     13299     13297     13300     13303
     13300     13303     13306     13307     13300     13303     13306     13308
     13300     13303     13306     13309     13301     13300     13303     13304
     13301     13300     13303     13305     13301     13300     13303     13306
     13302     13300     13303     13304     13302     13300     13303     13305
     13302     13300     13303     13306     13303     13306     13309     13310
     13303     13306     13309     13311     13304     13303     13306     13307
     13304     13303     13306     13308     13304     13303     13306     13309
     13305     13303     13306     13307     13305     13303     13306     13308
     13305     13303     13306     13309     13306     13309     13311     13312
     13306     13309     13311     13313     13307     13306     13309     13310
     13307     13306     13309     13311     13308     13306     13309     13310
     13308     13306     13309     13311     13309     13311     13313     13314
     13309     13311     13313     13315     13309     13311     13313     13316
     13310     13309     13311     13312     13310     13309     13311     13313
     13311     13313     13316     13317     13311     13313     13316     13318
     13311     13313     13316     13319     13312     13311     13313     13314
     13312     13311     13313     13315     13312     13311     13313     13316
     13313     13316     13319     13320     13313     13316     13319     13321
     13313     13316     13319     13322     13314     13313     13316     13317
     13314     13313     13316     13318     13314     13313     13316     13319
     13315     13313     13316     13317     13315     13313     13316     13318
     13315     13313     13316     13319     13316     13319     13322     13323
     13316     13319     13322     13324     13316     13319     13322     13325
     13317     13316     13319     13320     13317     13316     13319     13321
     13317     13316     13319     13322     13318     13316     13319     13320
     13318     13316     13319     13321     13318     13316     13319     13322
     13319     13322     13325     13326     13319     13322     13325     13327
     13319     13322     13325     13328     13320     13319     13322     13323
     13320     13319     13322     13324     13320     13319     13322     13325
     13321     13319     13322     13323     13321     13319     13322     13324
     13321     13319     13322     13325     13322     13325     13328     13329
     13322     13325     13328     13330     13322     13325     13328     13331
     13323     13322     13325     13326     13323     13322     13325     13327
     13323     13322     13325     13328     13324     13322     13325     13326
     13324     13322     13325     13327     13324     13322     13325     13328
     13325     13328     13331     13332     13325     13328     13331     13333
     13325     13328     13331     13334     13326     13325     13328     13329
     13326     13325     13328     13330     13326     13325     13328     13331
     13327     13325     13328     13329     13327     13325     13328     13330
     13327     13325     13328     13331     13328     13331     13334     13335
     13328     13331     13334     13336     13328     13331     13334     13337
     13329     13328     13331     13332     13329     13328     13331     13333
     13329     13328     13331     13334     13330     13328     13331     13332
     13330     13328     13331     13333     13330     13328     13331     13334
     13332     13331     13334     13335     13332     13331     13334     13336
     13332     13331     13334     13337     13333     13331     13334     13335
     13333     13331     13334     13336     13333     13331     13334     13337
     13338     13341     13344     13345     13338     13341     13344     13346
     13338     13341     13344     13347     13339     13338     13341     13342
     13339     13338     13341     13343     13339     13338     13341     13344
     13340     13338     13341     13342     13340     13338     13341     13343
     13340     13338     13341     13344     13341     13344     13347     13348
     13341     13344     13347     13349     13341     13344     13347     13350
     13342     13341     13344     13345     13342     13341     13344     13346
     13342     13341     13344     13347     13343     13341     13344     13345
     13343     13341     13344     13346     13343     13341     13344     13347
     13344     13347     13350     13351     13344     13347     13350     13352
     13344     13347     13350     13353     13345     13344     13347     13348
     13345     13344     13347     13349     13345     13344     13347     13350
     13346     13344     13347     13348     13346     13344     13347     13349
     13346     13344     13347     13350     13347     13350     13353     13354
     13347     13350     13353     13355     13347     13350     13353     13356
     13348     13347     13350     13351     13348     13347     13350     13352
     13348     13347     13350     13353     13349     13347     13350     13351
     13349     13347     13350     13352     13349     13347     13350     13353
     13350     13353     13356     13357     13350     13353     13356     13358
     13350     13353     13356     13359     13351     13350     13353     13354
     13351     13350     13353     13355     13351     13350     13353     13356
     13352     13350     13353     13354     13352     13350     13353     13355
     13352     13350     13353     13356     13353     13356     13359     13360
     13353     13356     13359     13361     13353     13356     13359     13362
     13354     13353     13356     13357     13354     13353     13356     13358
     13354     13353     13356     13359     13355     13353     13356     13357
     13355     13353     13356     13358     13355     13353     13356     13359
     13356     13359     13362     13363     13356     13359     13362     13364
     13356     13359     13362     13365     13357     13356     13359     13360
     13357     13356     13359     13361     13357     13356     13359     13362
     13358     13356     13359     13360     13358     13356     13359     13361
     13358     13356     13359     13362     13359     13362     13365     13366
     13359     13362     13365     13367     13359     13362     13365     13368
     13360     13359     13362     13363     13360     13359     13362     13364
     13360     13359     13362     13365     13361     13359     13362     13363
     13361     13359     13362     13364     13361     13359     13362     13365
     13362     13365     13368     13369     13362     13365     13368     13370
     13362     13365     13368     13371     13363     13362     13365     13366
     13363     13362     13365     13367     13363     13362     13365     13368
     13364     13362     13365     13366     13364     13362     13365     13367
     13364     13362     13365     13368     13365     13368     13371     13372
     13365     13368     13371     13373     13365     13368     13371     13374
     13366     13365     13368     13369     13366     13365     13368     13370
     13366     13365     13368     13371     13367     13365     13368     13369
     13367     13365     13368     13370     13367     13365     13368     13371
     13368     13371     13374     13375     13368     13371     13374     13376
     13368     13371     13374     13377     13369     13368     13371     13372
     13369     13368     13371     13373     13369     13368     13371     13374
     13370     13368     13371     13372     13370     13368     13371     13373
     13370     13368     13371     13374     13371     13374     13377     13378
     13371     13374     13377     13379     13371     13374     13377     13380
     13372     13371     13374     13375     13372     13371     13374     13376
     13372     13371     13374     13377     13373     13371     13374     13375
     13373     13371     13374     13376     13373     13371     13374     13377
     13375     13374     13377     13378     13375     13374     13377     13379
     13375     13374     13377     13380     13376     13374     13377     13378
     13376     13374     13377     13379     13376     13374     13377     13380
     13381     13382     13397     13398     13381     13382     13397     13399
     13381     13382     13397     13403     13382     13381     13385     13386
     13382     13381     13385     13387     13382     13381     13385     13388
     13382     13381     13389     13390     13382     13381     13389     13391
     13382     13381     13389     13392     13382     13381     13393     13394
     13382     13381     13393     13395     13382     13381     13393     13396
     13382     13397     13403     13400     13383     13382     13381     13385
     13383     13382     13381     13389     13383     13382     13381     13393
     13383     13382     13397     13398     13383     13382     13397     13399
     13383     13382     13397     13403     13384     13382     13381     13385
     13384     13382     13381     13389     13384     13382     13381     13393
     13384     13382     13397     13398     13384     13382     13397     13399
     13384     13382     13397     13403     13385     13381     13382     13397
     13385     13381     13389     13390     13385     13381     13389     13391
     13385     13381     13389     13392     13385     13381     13393     13394
     13385     13381     13393     13395     13385     13381     13393     13396
     13386     13385     13381     13389     13386     13385     13381     13393
     13387     13385     13381     13389     13387     13385     13381     13393
     13388     13385     13381     13389     13388     13385     13381     13393
     13389     13381     13382     13397     13389     13381     13393     13394
     13389     13381     13393     13395     13389     13381     13393     13396
     13390     13389     13381     13393     13391     13389     13381     13393
     13392     13389     13381     13393     13393     13381     13382     13397
     13397     13403     13400     13401     13397     13403     13400     13402
     13397     13403     13400     13404     13398     13397     13403     13400
     13399     13397     13403     13400     13400     13404     13405     13406
     13400     13404     13405     13407     13400     13404     13405     13408
     13401     13400     13404     13405     13402     13400     13404     13405
     13403     13400     13404     13405     13404     13405     13408     13409
     13404     13405     13408     13410     13404     13405     13408     13416
     13405     13408     13410     13411     13405     13408     13416     13417
     13405     13408     13416     13418     13405     13408     13416     13419
     13406     13405     13408     13409     13406     13405     13408     13410
     13406     13405     13408     13416     13407     13405     13408     13409
     13407     13405     13408     13410     13407     13405     13408     13416
     13408     13410     13411     13412     13408     13410     13411     13413
     13408     13416     13419     13420     13409     13408     13410     13411
     13409     13408     13416     13417     13409     13408     13416     13418
     13409     13408     13416     13419     13410     13408     13416     13417
     13410     13408     13416     13418     13410     13408     13416     13419
     13410     13411     13413     13414     13410     13411     13413     13415
     13410     13411     13413     13425     13411     13410     13408     13416
     13411     13413     13425     13426     13411     13413     13425     13427
     13411     13413     13425     13428     13412     13411     13413     13414
     13412     13411     13413     13415     13412     13411     13413     13425
     13413     13425     13428     13429     13413     13425     13428     13430
     13413     13425     13428     13431     13414     13413     13425     13426
     13414     13413     13425     13427     13414     13413     13425     13428
     13415     13413     13425     13426     13415     13413     13425     13427
     13415     13413     13425     13428     13416     13419     13420     13421
     13416     13419     13420     13422     13417     13416     13419     13420
     13418     13416     13419     13420     13419     13420     13422     13423
     13419     13420     13422     13424     13419     13420     13422     13472
     13420     13422     13472     13473     13420     13422     13472     13474
     13420     13422     13472     13475     13421     13420     13422     13423
     13421     13420     13422     13424     13421     13420     13422     13472
     13422     13472     13475     13476     13422     13472     13475     13477
     13422     13472     13475     13478     13423     13422     13472     13473
     13423     13422     13472     13474     13423     13422     13472     13475
     13424     13422     13472     13473     13424     13422     13472     13474
     13424     13422     13472     13475     13425     13428     13431     13432
     13425     13428     13431     13433     13425     13428     13431     13434
     13426     13425     13428     13429     13426     13425     13428     13430
     13426     13425     13428     13431     13427     13425     13428     13429
     13427     13425     13428     13430     13427     13425     13428     13431
     13428     13431     13434     13435     13428     13431     13434     13436
     13428     13431     13434     13437     13429     13428     13431     13432
     13429     13428     13431     13433     13429     13428     13431     13434
     13430     13428     13431     13432     13430     13428     13431     13433
     13430     13428     13431     13434     13431     13434     13437     13438
     13431     13434     13437     13439     13431     13434     13437     13440
     13432     13431     13434     13435     13432     13431     13434     13436
     13432     13431     13434     13437     13433     13431     13434     13435
     13433     13431     13434     13436     13433     13431     13434     13437
     13434     13437     13440     13441     13434     13437     13440     13442
     13434     13437     13440     13443     13435     13434     13437     13438
     13435     13434     13437     13439     13435     13434     13437     13440
     13436     13434     13437     13438     13436     13434     13437     13439
     13436     13434     13437     13440     13437     13440     13443     13444
     13437     13440     13443     13445     13438     13437     13440     13441
     13438     13437     13440     13442     13438     13437     13440     13443
     13439     13437     13440     13441     13439     13437     13440     13442
     13439     13437     13440     13443     13440     13443     13445     13446
     13440     13443     13445     13447     13441     13440     13443     13444
     13441     13440     13443     13445     13442     13440     13443     13444
     13442     13440     13443     13445     13443     13445     13447     13448
     13443     13445     13447     13449     13443     13445     13447     13450
     13444     13443     13445     13446     13444     13443     13445     13447
     13445     13447     13450     13451     13445     13447     13450     13452
     13445     13447     13450     13453     13446     13445     13447     13448
     13446     13445     13447     13449     13446     13445     13447     13450
     13447     13450     13453     13454     13447     13450     13453     13455
     13447     13450     13453     13456     13448     13447     13450     13451
     13448     13447     13450     13452     13448     13447     13450     13453
     13449     13447     13450     13451     13449     13447     13450     13452
     13449     13447     13450     13453     13450     13453     13456     13457
     13450     13453     13456     13458     13450     13453     13456     13459
     13451     13450     13453     13454     13451     13450     13453     13455
     13451     13450     13453     13456     13452     13450     13453     13454
     13452     13450     13453     13455     13452     13450     13453     13456
     13453     13456     13459     13460     13453     13456     13459     13461
     13453     13456     13459     13462     13454     13453     13456     13457
     13454     13453     13456     13458     13454     13453     13456     13459
     13455     13453     13456     13457     13455     13453     13456     13458
     13455     13453     13456     13459     13456     13459     13462     13463
     13456     13459     13462     13464     13456     13459     13462     13465
     13457     13456     13459     13460     13457     13456     13459     13461
     13457     13456     13459     13462     13458     13456     13459     13460
     13458     13456     13459     13461     13458     13456     13459     13462
     13459     13462     13465     13466     13459     13462     13465     13467
     13459     13462     13465     13468     13460     13459     13462     13463
     13460     13459     13462     13464     13460     13459     13462     13465
     13461     13459     13462     13463     13461     13459     13462     13464
     13461     13459     13462     13465     13462     13465     13468     13469
     13462     13465     13468     13470     13462     13465     13468     13471
     13463     13462     13465     13466     13463     13462     13465     13467
     13463     13462     13465     13468     13464     13462     13465     13466
     13464     13462     13465     13467     13464     13462     13465     13468
     13466     13465     13468     13469     13466     13465     13468     13470
     13466     13465     13468     13471     13467     13465     13468     13469
     13467     13465     13468     13470     13467     13465     13468     13471
     13472     13475     13478     13479     13472     13475     13478     13480
     13472     13475     13478     13481     13473     13472     13475     13476
     13473     13472     13475     13477     13473     13472     13475     13478
     13474     13472     13475     13476     13474     13472     13475     13477
     13474     13472     13475     13478     13475     13478     13481     13482
     13475     13478     13481     13483     13475     13478     13481     13484
     13476     13475     13478     13479     13476     13475     13478     13480
     13476     13475     13478     13481     13477     13475     13478     13479
     13477     13475     13478     13480     13477     13475     13478     13481
     13478     13481     13484     13485     13478     13481     13484     13486
     13478     13481     13484     13487     13479     13478     13481     13482
     13479     13478     13481     13483     13479     13478     13481     13484
     13480     13478     13481     13482     13480     13478     13481     13483
     13480     13478     13481     13484     13481     13484     13487     13488
     13481     13484     13487     13489     13481     13484     13487     13490
     13482     13481     13484     13485     13482     13481     13484     13486
     13482     13481     13484     13487     13483     13481     13484     13485
     13483     13481     13484     13486     13483     13481     13484     13487
     13484     13487     13490     13491     13484     13487     13490     13492
     13484     13487     13490     13493     13485     13484     13487     13488
     13485     13484     13487     13489     13485     13484     13487     13490
     13486     13484     13487     13488     13486     13484     13487     13489
     13486     13484     13487     13490     13487     13490     13493     13494
     13487     13490     13493     13495     13487     13490     13493     13496
     13488     13487     13490     13491     13488     13487     13490     13492
     13488     13487     13490     13493     13489     13487     13490     13491
     13489     13487     13490     13492     13489     13487     13490     13493
     13490     13493     13496     13497     13490     13493     13496     13498
     13490     13493     13496     13499     13491     13490     13493     13494
     13491     13490     13493     13495     13491     13490     13493     13496
     13492     13490     13493     13494     13492     13490     13493     13495
     13492     13490     13493     13496     13493     13496     13499     13500
     13493     13496     13499     13501     13493     13496     13499     13502
     13494     13493     13496     13497     13494     13493     13496     13498
     13494     13493     13496     13499     13495     13493     13496     13497
     13495     13493     13496     13498     13495     13493     13496     13499
     13496     13499     13502     13503     13496     13499     13502     13504
     13496     13499     13502     13505     13497     13496     13499     13500
     13497     13496     13499     13501     13497     13496     13499     13502
     13498     13496     13499     13500     13498     13496     13499     13501
     13498     13496     13499     13502     13499     13502     13505     13506
     13499     13502     13505     13507     13499     13502     13505     13508
     13500     13499     13502     13503     13500     13499     13502     13504
     13500     13499     13502     13505     13501     13499     13502     13503
     13501     13499     13502     13504     13501     13499     13502     13505
     13502     13505     13508     13509     13502     13505     13508     13510
     13502     13505     13508     13511     13503     13502     13505     13506
     13503     13502     13505     13507     13503     13502     13505     13508
     13504     13502     13505     13506     13504     13502     13505     13507
     13504     13502     13505     13508     13505     13508     13511     13512
     13505     13508     13511     13513     13505     13508     13511     13514
     13506     13505     13508     13509     13506     13505     13508     13510
     13506     13505     13508     13511     13507     13505     13508     13509
     13507     13505     13508     13510     13507     13505     13508     13511
     13509     13508     13511     13512     13509     13508     13511     13513
     13509     13508     13511     13514     13510     13508     13511     13512
     13510     13508     13511     13513     13510     13508     13511     13514
     13515     13516     13531     13532     13515     13516     13531     13533
     13515     13516     13531     13537     13516     13515     13519     13520
     13516     13515     13519     13521     13516     13515     13519     13522
     13516     13515     13523     13524     13516     13515     13523     13525
     13516     13515     13523     13526     13516     13515     13527     13528
     13516     13515     13527     13529     13516     13515     13527     13530
     13516     13531     13537     13534     13517     13516     13515     13519
     13517     13516     13515     13523     13517     13516     13515     13527
     13517     13516     13531     13532     13517     13516     13531     13533
     13517     13516     13531     13537     13518     13516     13515     13519
     13518     13516     13515     13523     13518     13516     13515     13527
     13518     13516     13531     13532     13518     13516     13531     13533
     13518     13516     13531     13537     13519     13515     13516     13531
     13519     13515     13523     13524     13519     13515     13523     13525
     13519     13515     13523     13526     13519     13515     13527     13528
     13519     13515     13527     13529     13519     13515     13527     13530
     13520     13519     13515     13523     13520     13519     13515     13527
     13521     13519     13515     13523     13521     13519     13515     13527
     13522     13519     13515     13523     13522     13519     13515     13527
     13523     13515     13516     13531     13523     13515     13527     13528
     13523     13515     13527     13529     13523     13515     13527     13530
     13524     13523     13515     13527     13525     13523     13515     13527
     13526     13523     13515     13527     13527     13515     13516     13531
     13531     13537     13534     13535     13531     13537     13534     13536
     13531     13537     13534     13538     13532     13531     13537     13534
     13533     13531     13537     13534     13534     13538     13539     13540
     13534     13538     13539     13541     13534     13538     13539     13542
     13535     13534     13538     13539     13536     13534     13538     13539
     13537     13534     13538     13539     13538     13539     13542     13543
     13538     13539     13542     13544     13538     13539     13542     13550
     13539     13542     13544     13545     13539     13542     13550     13551
     13539     13542     13550     13552     13539     13542     13550     13553
     13540     13539     13542     13543     13540     13539     13542     13544
     13540     13539     13542     13550     13541     13539     13542     13543
     13541     13539     13542     13544     13541     13539     13542     13550
     13542     13544     13545     13546     13542     13544     13545     13547
     13542     13550     13553     13554     13543     13542     13544     13545
     13543     13542     13550     13551     13543     13542     13550     13552
     13543     13542     13550     13553     13544     13542     13550     13551
     13544     13542     13550     13552     13544     13542     13550     13553
     13544     13545     13547     13548     13544     13545     13547     13549
     13544     13545     13547     13559     13545     13544     13542     13550
     13545     13547     13559     13560     13545     13547     13559     13561
     13545     13547     13559     13562     13546     13545     13547     13548
     13546     13545     13547     13549     13546     13545     13547     13559
     13547     13559     13562     13563     13547     13559     13562     13564
     13547     13559     13562     13565     13548     13547     13559     13560
     13548     13547     13559     13561     13548     13547     13559     13562
     13549     13547     13559     13560     13549     13547     13559     13561
     13549     13547     13559     13562     13550     13553     13554     13555
     13550     13553     13554     13556     13551     13550     13553     13554
     13552     13550     13553     13554     13553     13554     13556     13557
     13553     13554     13556     13558     13553     13554     13556     13606
     13554     13556     13606     13607     13554     13556     13606     13608
     13554     13556     13606     13609     13555     13554     13556     13557
     13555     13554     13556     13558     13555     13554     13556     13606
     13556     13606     13609     13610     13556     13606     13609     13611
     13556     13606     13609     13612     13557     13556     13606     13607
     13557     13556     13606     13608     13557     13556     13606     13609
     13558     13556     13606     13607     13558     13556     13606     13608
     13558     13556     13606     13609     13559     13562     13565     13566
     13559     13562     13565     13567     13559     13562     13565     13568
     13560     13559     13562     13563     13560     13559     13562     13564
     13560     13559     13562     13565     13561     13559     13562     13563
     13561     13559     13562     13564     13561     13559     13562     13565
     13562     13565     13568     13569     13562     13565     13568     13570
     13562     13565     13568     13571     13563     13562     13565     13566
     13563     13562     13565     13567     13563     13562     13565     13568
     13564     13562     13565     13566     13564     13562     13565     13567
     13564     13562     13565     13568     13565     13568     13571     13572
     13565     13568     13571     13573     13565     13568     13571     13574
     13566     13565     13568     13569     13566     13565     13568     13570
     13566     13565     13568     13571     13567     13565     13568     13569
     13567     13565     13568     13570     13567     13565     13568     13571
     13568     13571     13574     13575     13568     13571     13574     13576
     13568     13571     13574     13577     13569     13568     13571     13572
     13569     13568     13571     13573     13569     13568     13571     13574
     13570     13568     13571     13572     13570     13568     13571     13573
     13570     13568     13571     13574     13571     13574     13577     13578
     13571     13574     13577     13579     13572     13571     13574     13575
     13572     13571     13574     13576     13572     13571     13574     13577
     13573     13571     13574     13575     13573     13571     13574     13576
     13573     13571     13574     13577     13574     13577     13579     13580
     13574     13577     13579     13581     13575     13574     13577     13578
     13575     13574     13577     13579     13576     13574     13577     13578
     13576     13574     13577     13579     13577     13579     13581     13582
     13577     13579     13581     13583     13577     13579     13581     13584
     13578     13577     13579     13580     13578     13577     13579     13581
     13579     13581     13584     13585     13579     13581     13584     13586
     13579     13581     13584     13587     13580     13579     13581     13582
     13580     13579     13581     13583     13580     13579     13581     13584
     13581     13584     13587     13588     13581     13584     13587     13589
     13581     13584     13587     13590     13582     13581     13584     13585
     13582     13581     13584     13586     13582     13581     13584     13587
     13583     13581     13584     13585     13583     13581     13584     13586
     13583     13581     13584     13587     13584     13587     13590     13591
     13584     13587     13590     13592     13584     13587     13590     13593
     13585     13584     13587     13588     13585     13584     13587     13589
     13585     13584     13587     13590     13586     13584     13587     13588
     13586     13584     13587     13589     13586     13584     13587     13590
     13587     13590     13593     13594     13587     13590     13593     13595
     13587     13590     13593     13596     13588     13587     13590     13591
     13588     13587     13590     13592     13588     13587     13590     13593
     13589     13587     13590     13591     13589     13587     13590     13592
     13589     13587     13590     13593     13590     13593     13596     13597
     13590     13593     13596     13598     13590     13593     13596     13599
     13591     13590     13593     13594     13591     13590     13593     13595
     13591     13590     13593     13596     13592     13590     13593     13594
     13592     13590     13593     13595     13592     13590     13593     13596
     13593     13596     13599     13600     13593     13596     13599     13601
     13593     13596     13599     13602     13594     13593     13596     13597
     13594     13593     13596     13598     13594     13593     13596     13599
     13595     13593     13596     13597     13595     13593     13596     13598
     13595     13593     13596     13599     13596     13599     13602     13603
     13596     13599     13602     13604     13596     13599     13602     13605
     13597     13596     13599     13600     13597     13596     13599     13601
     13597     13596     13599     13602     13598     13596     13599     13600
     13598     13596     13599     13601     13598     13596     13599     13602
     13600     13599     13602     13603     13600     13599     13602     13604
     13600     13599     13602     13605     13601     13599     13602     13603
     13601     13599     13602     13604     13601     13599     13602     13605
     13606     13609     13612     13613     13606     13609     13612     13614
     13606     13609     13612     13615     13607     13606     13609     13610
     13607     13606     13609     13611     13607     13606     13609     13612
     13608     13606     13609     13610     13608     13606     13609     13611
     13608     13606     13609     13612     13609     13612     13615     13616
     13609     13612     13615     13617     13609     13612     13615     13618
     13610     13609     13612     13613     13610     13609     13612     13614
     13610     13609     13612     13615     13611     13609     13612     13613
     13611     13609     13612     13614     13611     13609     13612     13615
     13612     13615     13618     13619     13612     13615     13618     13620
     13612     13615     13618     13621     13613     13612     13615     13616
     13613     13612     13615     13617     13613     13612     13615     13618
     13614     13612     13615     13616     13614     13612     13615     13617
     13614     13612     13615     13618     13615     13618     13621     13622
     13615     13618     13621     13623     13615     13618     13621     13624
     13616     13615     13618     13619     13616     13615     13618     13620
     13616     13615     13618     13621     13617     13615     13618     13619
     13617     13615     13618     13620     13617     13615     13618     13621
     13618     13621     13624     13625     13618     13621     13624     13626
     13618     13621     13624     13627     13619     13618     13621     13622
     13619     13618     13621     13623     13619     13618     13621     13624
     13620     13618     13621     13622     13620     13618     13621     13623
     13620     13618     13621     13624     13621     13624     13627     13628
     13621     13624     13627     13629     13621     13624     13627     13630
     13622     13621     13624     13625     13622     13621     13624     13626
     13622     13621     13624     13627     13623     13621     13624     13625
     13623     13621     13624     13626     13623     13621     13624     13627
     13624     13627     13630     13631     13624     13627     13630     13632
     13624     13627     13630     13633     13625     13624     13627     13628
     13625     13624     13627     13629     13625     13624     13627     13630
     13626     13624     13627     13628     13626     13624     13627     13629
     13626     13624     13627     13630     13627     13630     13633     13634
     13627     13630     13633     13635     13627     13630     13633     13636
     13628     13627     13630     13631     13628     13627     13630     13632
     13628     13627     13630     13633     13629     13627     13630     13631
     13629     13627     13630     13632     13629     13627     13630     13633
     13630     13633     13636     13637     13630     13633     13636     13638
     13630     13633     13636     13639     13631     13630     13633     13634
     13631     13630     13633     13635     13631     13630     13633     13636
     13632     13630     13633     13634     13632     13630     13633     13635
     13632     13630     13633     13636     13633     13636     13639     13640
     13633     13636     13639     13641     13633     13636     13639     13642
     13634     13633     13636     13637     13634     13633     13636     13638
     13634     13633     13636     13639     13635     13633     13636     13637
     13635     13633     13636     13638     13635     13633     13636     13639
     13636     13639     13642     13643     13636     13639     13642     13644
     13636     13639     13642     13645     13637     13636     13639     13640
     13637     13636     13639     13641     13637     13636     13639     13642
     13638     13636     13639     13640     13638     13636     13639     13641
     13638     13636     13639     13642     13639     13642     13645     13646
     13639     13642     13645     13647     13639     13642     13645     13648
     13640     13639     13642     13643     13640     13639     13642     13644
     13640     13639     13642     13645     13641     13639     13642     13643
     13641     13639     13642     13644     13641     13639     13642     13645
     13643     13642     13645     13646     13643     13642     13645     13647
     13643     13642     13645     13648     13644     13642     13645     13646
     13644     13642     13645     13647     13644     13642     13645     13648
     13649     13650     13665     13666     13649     13650     13665     13667
     13649     13650     13665     13671     13650     13649     13653     13654
     13650     13649     13653     13655     13650     13649     13653     13656
     13650     13649     13657     13658     13650     13649     13657     13659
     13650     13649     13657     13660     13650     13649     13661     13662
     13650     13649     13661     13663     13650     13649     13661     13664
     13650     13665     13671     13668     13651     13650     13649     13653
     13651     13650     13649     13657     13651     13650     13649     13661
     13651     13650     13665     13666     13651     13650     13665     13667
     13651     13650     13665     13671     13652     13650     13649     13653
     13652     13650     13649     13657     13652     13650     13649     13661
     13652     13650     13665     13666     13652     13650     13665     13667
     13652     13650     13665     13671     13653     13649     13650     13665
     13653     13649     13657     13658     13653     13649     13657     13659
     13653     13649     13657     13660     13653     13649     13661     13662
     13653     13649     13661     13663     13653     13649     13661     13664
     13654     13653     13649     13657     13654     13653     13649     13661
     13655     13653     13649     13657     13655     13653     13649     13661
     13656     13653     13649     13657     13656     13653     13649     13661
     13657     13649     13650     13665     13657     13649     13661     13662
     13657     13649     13661     13663     13657     13649     13661     13664
     13658     13657     13649     13661     13659     13657     13649     13661
     13660     13657     13649     13661     13661     13649     13650     13665
     13665     13671     13668     13669     13665     13671     13668     13670
     13665     13671     13668     13672     13666     13665     13671     13668
     13667     13665     13671     13668     13668     13672     13673     13674
     13668     13672     13673     13675     13668     13672     13673     13676
     13669     13668     13672     13673     13670     13668     13672     13673
     13671     13668     13672     13673     13672     13673     13676     13677
     13672     13673     13676     13678     13672     13673     13676     13684
     13673     13676     13678     13679     13673     13676     13684     13685
     13673     13676     13684     13686     13673     13676     13684     13687
     13674     13673     13676     13677     13674     13673     13676     13678
     13674     13673     13676     13684     13675     13673     13676     13677
     13675     13673     13676     13678     13675     13673     13676     13684
     13676     13678     13679     13680     13676     13678     13679     13681
     13676     13684     13687     13688     13677     13676     13678     13679
     13677     13676     13684     13685     13677     13676     13684     13686
     13677     13676     13684     13687     13678     13676     13684     13685
     13678     13676     13684     13686     13678     13676     13684     13687
     13678     13679     13681     13682     13678     13679     13681     13683
     13678     13679     13681     13693     13679     13678     13676     13684
     13679     13681     13693     13694     13679     13681     13693     13695
     13679     13681     13693     13696     13680     13679     13681     13682
     13680     13679     13681     13683     13680     13679     13681     13693
     13681     13693     13696     13697     13681     13693     13696     13698
     13681     13693     13696     13699     13682     13681     13693     13694
     13682     13681     13693     13695     13682     13681     13693     13696
     13683     13681     13693     13694     13683     13681     13693     13695
     13683     13681     13693     13696     13684     13687     13688     13689
     13684     13687     13688     13690     13685     13684     13687     13688
     13686     13684     13687     13688     13687     13688     13690     13691
     13687     13688     13690     13692     13687     13688     13690     13740
     13688     13690     13740     13741     13688     13690     13740     13742
     13688     13690     13740     13743     13689     13688     13690     13691
     13689     13688     13690     13692     13689     13688     13690     13740
     13690     13740     13743     13744     13690     13740     13743     13745
     13690     13740     13743     13746     13691     13690     13740     13741
     13691     13690     13740     13742     13691     13690     13740     13743
     13692     13690     13740     13741     13692     13690     13740     13742
     13692     13690     13740     13743     13693     13696     13699     13700
     13693     13696     13699     13701     13693     13696     13699     13702
     13694     13693     13696     13697     13694     13693     13696     13698
     13694     13693     13696     13699     13695     13693     13696     13697
     13695     13693     13696     13698     13695     13693     13696     13699
     13696     13699     13702     13703     13696     13699     13702     13704
     13696     13699     13702     13705     13697     13696     13699     13700
     13697     13696     13699     13701     13697     13696     13699     13702
     13698     13696     13699     13700     13698     13696     13699     13701
     13698     13696     13699     13702     13699     13702     13705     13706
     13699     13702     13705     13707     13699     13702     13705     13708
     13700     13699     13702     13703     13700     13699     13702     13704
     13700     13699     13702     13705     13701     13699     13702     13703
     13701     13699     13702     13704     13701     13699     13702     13705
     13702     13705     13708     13709     13702     13705     13708     13710
     13702     13705     13708     13711     13703     13702     13705     13706
     13703     13702     13705     13707     13703     13702     13705     13708
     13704     13702     13705     13706     13704     13702     13705     13707
     13704     13702     13705     13708     13705     13708     13711     13712
     13705     13708     13711     13713     13706     13705     13708     13709
     13706     13705     13708     13710     13706     13705     13708     13711
     13707     13705     13708     13709     13707     13705     13708     13710
     13707     13705     13708     13711     13708     13711     13713     13714
     13708     13711     13713     13715     13709     13708     13711     13712
     13709     13708     13711     13713     13710     13708     13711     13712
     13710     13708     13711     13713     13711     13713     13715     13716
     13711     13713     13715     13717     13711     13713     13715     13718
     13712     13711     13713     13714     13712     13711     13713     13715
     13713     13715     13718     13719     13713     13715     13718     13720
     13713     13715     13718     13721     13714     13713     13715     13716
     13714     13713     13715     13717     13714     13713     13715     13718
     13715     13718     13721     13722     13715     13718     13721     13723
     13715     13718     13721     13724     13716     13715     13718     13719
     13716     13715     13718     13720     13716     13715     13718     13721
     13717     13715     13718     13719     13717     13715     13718     13720
     13717     13715     13718     13721     13718     13721     13724     13725
     13718     13721     13724     13726     13718     13721     13724     13727
     13719     13718     13721     13722     13719     13718     13721     13723
     13719     13718     13721     13724     13720     13718     13721     13722
     13720     13718     13721     13723     13720     13718     13721     13724
     13721     13724     13727     13728     13721     13724     13727     13729
     13721     13724     13727     13730     13722     13721     13724     13725
     13722     13721     13724     13726     13722     13721     13724     13727
     13723     13721     13724     13725     13723     13721     13724     13726
     13723     13721     13724     13727     13724     13727     13730     13731
     13724     13727     13730     13732     13724     13727     13730     13733
     13725     13724     13727     13728     13725     13724     13727     13729
     13725     13724     13727     13730     13726     13724     13727     13728
     13726     13724     13727     13729     13726     13724     13727     13730
     13727     13730     13733     13734     13727     13730     13733     13735
     13727     13730     13733     13736     13728     13727     13730     13731
     13728     13727     13730     13732     13728     13727     13730     13733
     13729     13727     13730     13731     13729     13727     13730     13732
     13729     13727     13730     13733     13730     13733     13736     13737
     13730     13733     13736     13738     13730     13733     13736     13739
     13731     13730     13733     13734     13731     13730     13733     13735
     13731     13730     13733     13736     13732     13730     13733     13734
     13732     13730     13733     13735     13732     13730     13733     13736
     13734     13733     13736     13737     13734     13733     13736     13738
     13734     13733     13736     13739     13735     13733     13736     13737
     13735     13733     13736     13738     13735     13733     13736     13739
     13740     13743     13746     13747     13740     13743     13746     13748
     13740     13743     13746     13749     13741     13740     13743     13744
     13741     13740     13743     13745     13741     13740     13743     13746
     13742     13740     13743     13744     13742     13740     13743     13745
     13742     13740     13743     13746     13743     13746     13749     13750
     13743     13746     13749     13751     13743     13746     13749     13752
     13744     13743     13746     13747     13744     13743     13746     13748
     13744     13743     13746     13749     13745     13743     13746     13747
     13745     13743     13746     13748     13745     13743     13746     13749
     13746     13749     13752     13753     13746     13749     13752     13754
     13746     13749     13752     13755     13747     13746     13749     13750
     13747     13746     13749     13751     13747     13746     13749     13752
     13748     13746     13749     13750     13748     13746     13749     13751
     13748     13746     13749     13752     13749     13752     13755     13756
     13749     13752     13755     13757     13749     13752     13755     13758
     13750     13749     13752     13753     13750     13749     13752     13754
     13750     13749     13752     13755     13751     13749     13752     13753
     13751     13749     13752     13754     13751     13749     13752     13755
     13752     13755     13758     13759     13752     13755     13758     13760
     13752     13755     13758     13761     13753     13752     13755     13756
     13753     13752     13755     13757     13753     13752     13755     13758
     13754     13752     13755     13756     13754     13752     13755     13757
     13754     13752     13755     13758     13755     13758     13761     13762
     13755     13758     13761     13763     13755     13758     13761     13764
     13756     13755     13758     13759     13756     13755     13758     13760
     13756     13755     13758     13761     13757     13755     13758     13759
     13757     13755     13758     13760     13757     13755     13758     13761
     13758     13761     13764     13765     13758     13761     13764     13766
     13758     13761     13764     13767     13759     13758     13761     13762
     13759     13758     13761     13763     13759     13758     13761     13764
     13760     13758     13761     13762     13760     13758     13761     13763
     13760     13758     13761     13764     13761     13764     13767     13768
     13761     13764     13767     13769     13761     13764     13767     13770
     13762     13761     13764     13765     13762     13761     13764     13766
     13762     13761     13764     13767     13763     13761     13764     13765
     13763     13761     13764     13766     13763     13761     13764     13767
     13764     13767     13770     13771     13764     13767     13770     13772
     13764     13767     13770     13773     13765     13764     13767     13768
     13765     13764     13767     13769     13765     13764     13767     13770
     13766     13764     13767     13768     13766     13764     13767     13769
     13766     13764     13767     13770     13767     13770     13773     13774
     13767     13770     13773     13775     13767     13770     13773     13776
     13768     13767     13770     13771     13768     13767     13770     13772
     13768     13767     13770     13773     13769     13767     13770     13771
     13769     13767     13770     13772     13769     13767     13770     13773
     13770     13773     13776     13777     13770     13773     13776     13778
     13770     13773     13776     13779     13771     13770     13773     13774
     13771     13770     13773     13775     13771     13770     13773     13776
     13772     13770     13773     13774     13772     13770     13773     13775
     13772     13770     13773     13776     13773     13776     13779     13780
     13773     13776     13779     13781     13773     13776     13779     13782
     13774     13773     13776     13777     13774     13773     13776     13778
     13774     13773     13776     13779     13775     13773     13776     13777
     13775     13773     13776     13778     13775     13773     13776     13779
     13777     13776     13779     13780     13777     13776     13779     13781
     13777     13776     13779     13782     13778     13776     13779     13780
     13778     13776     13779     13781     13778     13776     13779     13782
     13783     13784     13799     13800     13783     13784     13799     13801
     13783     13784     13799     13805     13784     13783     13787     13788
     13784     13783     13787     13789     13784     13783     13787     13790
     13784     13783     13791     13792     13784     13783     13791     13793
     13784     13783     13791     13794     13784     13783     13795     13796
     13784     13783     13795     13797     13784     13783     13795     13798
     13784     13799     13805     13802     13785     13784     13783     13787
     13785     13784     13783     13791     13785     13784     13783     13795
     13785     13784     13799     13800     13785     13784     13799     13801
     13785     13784     13799     13805     13786     13784     13783     13787
     13786     13784     13783     13791     13786     13784     13783     13795
     13786     13784     13799     13800     13786     13784     13799     13801
     13786     13784     13799     13805     13787     13783     13784     13799
     13787     13783     13791     13792     13787     13783     13791     13793
     13787     13783     13791     13794     13787     13783     13795     13796
     13787     13783     13795     13797     13787     13783     13795     13798
     13788     13787     13783     13791     13788     13787     13783     13795
     13789     13787     13783     13791     13789     13787     13783     13795
     13790     13787     13783     13791     13790     13787     13783     13795
     13791     13783     13784     13799     13791     13783     13795     13796
     13791     13783     13795     13797     13791     13783     13795     13798
     13792     13791     13783     13795     13793     13791     13783     13795
     13794     13791     13783     13795     13795     13783     13784     13799
     13799     13805     13802     13803     13799     13805     13802     13804
     13799     13805     13802     13806     13800     13799     13805     13802
     13801     13799     13805     13802     13802     13806     13807     13808
     13802     13806     13807     13809     13802     13806     13807     13810
     13803     13802     13806     13807     13804     13802     13806     13807
     13805     13802     13806     13807     13806     13807     13810     13811
     13806     13807     13810     13812     13806     13807     13810     13818
     13807     13810     13812     13813     13807     13810     13818     13819
     13807     13810     13818     13820     13807     13810     13818     13821
     13808     13807     13810     13811     13808     13807     13810     13812
     13808     13807     13810     13818     13809     13807     13810     13811
     13809     13807     13810     13812     13809     13807     13810     13818
     13810     13812     13813     13814     13810     13812     13813     13815
     13810     13818     13821     13822     13811     13810     13812     13813
     13811     13810     13818     13819     13811     13810     13818     13820
     13811     13810     13818     13821     13812     13810     13818     13819
     13812     13810     13818     13820     13812     13810     13818     13821
     13812     13813     13815     13816     13812     13813     13815     13817
     13812     13813     13815     13827     13813     13812     13810     13818
     13813     13815     13827     13828     13813     13815     13827     13829
     13813     13815     13827     13830     13814     13813     13815     13816
     13814     13813     13815     13817     13814     13813     13815     13827
     13815     13827     13830     13831     13815     13827     13830     13832
     13815     13827     13830     13833     13816     13815     13827     13828
     13816     13815     13827     13829     13816     13815     13827     13830
     13817     13815     13827     13828     13817     13815     13827     13829
     13817     13815     13827     13830     13818     13821     13822     13823
     13818     13821     13822     13824     13819     13818     13821     13822
     13820     13818     13821     13822     13821     13822     13824     13825
     13821     13822     13824     13826     13821     13822     13824     13874
     13822     13824     13874     13875     13822     13824     13874     13876
     13822     13824     13874     13877     13823     13822     13824     13825
     13823     13822     13824     13826     13823     13822     13824     13874
     13824     13874     13877     13878     13824     13874     13877     13879
     13824     13874     13877     13880     13825     13824     13874     13875
     13825     13824     13874     13876     13825     13824     13874     13877
     13826     13824     13874     13875     13826     13824     13874     13876
     13826     13824     13874     13877     13827     13830     13833     13834
     13827     13830     13833     13835     13827     13830     13833     13836
     13828     13827     13830     13831     13828     13827     13830     13832
     13828     13827     13830     13833     13829     13827     13830     13831
     13829     13827     13830     13832     13829     13827     13830     13833
     13830     13833     13836     13837     13830     13833     13836     13838
     13830     13833     13836     13839     13831     13830     13833     13834
     13831     13830     13833     13835     13831     13830     13833     13836
     13832     13830     13833     13834     13832     13830     13833     13835
     13832     13830     13833     13836     13833     13836     13839     13840
     13833     13836     13839     13841     13833     13836     13839     13842
     13834     13833     13836     13837     13834     13833     13836     13838
     13834     13833     13836     13839     13835     13833     13836     13837
     13835     13833     13836     13838     13835     13833     13836     13839
     13836     13839     13842     13843     13836     13839     13842     13844
     13836     13839     13842     13845     13837     13836     13839     13840
     13837     13836     13839     13841     13837     13836     13839     13842
     13838     13836     13839     13840     13838     13836     13839     13841
     13838     13836     13839     13842     13839     13842     13845     13846
     13839     13842     13845     13847     13840     13839     13842     13843
     13840     13839     13842     13844     13840     13839     13842     13845
     13841     13839     13842     13843     13841     13839     13842     13844
     13841     13839     13842     13845     13842     13845     13847     13848
     13842     13845     13847     13849     13843     13842     13845     13846
     13843     13842     13845     13847     13844     13842     13845     13846
     13844     13842     13845     13847     13845     13847     13849     13850
     13845     13847     13849     13851     13845     13847     13849     13852
     13846     13845     13847     13848     13846     13845     13847     13849
     13847     13849     13852     13853     13847     13849     13852     13854
     13847     13849     13852     13855     13848     13847     13849     13850
     13848     13847     13849     13851     13848     13847     13849     13852
     13849     13852     13855     13856     13849     13852     13855     13857
     13849     13852     13855     13858     13850     13849     13852     13853
     13850     13849     13852     13854     13850     13849     13852     13855
     13851     13849     13852     13853     13851     13849     13852     13854
     13851     13849     13852     13855     13852     13855     13858     13859
     13852     13855     13858     13860     13852     13855     13858     13861
     13853     13852     13855     13856     13853     13852     13855     13857
     13853     13852     13855     13858     13854     13852     13855     13856
     13854     13852     13855     13857     13854     13852     13855     13858
     13855     13858     13861     13862     13855     13858     13861     13863
     13855     13858     13861     13864     13856     13855     13858     13859
     13856     13855     13858     13860     13856     13855     13858     13861
     13857     13855     13858     13859     13857     13855     13858     13860
     13857     13855     13858     13861     13858     13861     13864     13865
     13858     13861     13864     13866     13858     13861     13864     13867
     13859     13858     13861     13862     13859     13858     13861     13863
     13859     13858     13861     13864     13860     13858     13861     13862
     13860     13858     13861     13863     13860     13858     13861     13864
     13861     13864     13867     13868     13861     13864     13867     13869
     13861     13864     13867     13870     13862     13861     13864     13865
     13862     13861     13864     13866     13862     13861     13864     13867
     13863     13861     13864     13865     13863     13861     13864     13866
     13863     13861     13864     13867     13864     13867     13870     13871
     13864     13867     13870     13872     13864     13867     13870     13873
     13865     13864     13867     13868     13865     13864     13867     13869
     13865     13864     13867     13870     13866     13864     13867     13868
     13866     13864     13867     13869     13866     13864     13867     13870
     13868     13867     13870     13871     13868     13867     13870     13872
     13868     13867     13870     13873     13869     13867     13870     13871
     13869     13867     13870     13872     13869     13867     13870     13873
     13874     13877     13880     13881     13874     13877     13880     13882
     13874     13877     13880     13883     13875     13874     13877     13878
     13875     13874     13877     13879     13875     13874     13877     13880
     13876     13874     13877     13878     13876     13874     13877     13879
     13876     13874     13877     13880     13877     13880     13883     13884
     13877     13880     13883     13885     13877     13880     13883     13886
     13878     13877     13880     13881     13878     13877     13880     13882
     13878     13877     13880     13883     13879     13877     13880     13881
     13879     13877     13880     13882     13879     13877     13880     13883
     13880     13883     13886     13887     13880     13883     13886     13888
     13880     13883     13886     13889     13881     13880     13883     13884
     13881     13880     13883     13885     13881     13880     13883     13886
     13882     13880     13883     13884     13882     13880     13883     13885
     13882     13880     13883     13886     13883     13886     13889     13890
     13883     13886     13889     13891     13883     13886     13889     13892
     13884     13883     13886     13887     13884     13883     13886     13888
     13884     13883     13886     13889     13885     13883     13886     13887
     13885     13883     13886     13888     13885     13883     13886     13889
     13886     13889     13892     13893     13886     13889     13892     13894
     13886     13889     13892     13895     13887     13886     13889     13890
     13887     13886     13889     13891     13887     13886     13889     13892
     13888     13886     13889     13890     13888     13886     13889     13891
     13888     13886     13889     13892     13889     13892     13895     13896
     13889     13892     13895     13897     13889     13892     13895     13898
     13890     13889     13892     13893     13890     13889     13892     13894
     13890     13889     13892     13895     13891     13889     13892     13893
     13891     13889     13892     13894     13891     13889     13892     13895
     13892     13895     13898     13899     13892     13895     13898     13900
     13892     13895     13898     13901     13893     13892     13895     13896
     13893     13892     13895     13897     13893     13892     13895     13898
     13894     13892     13895     13896     13894     13892     13895     13897
     13894     13892     13895     13898     13895     13898     13901     13902
     13895     13898     13901     13903     13895     13898     13901     13904
     13896     13895     13898     13899     13896     13895     13898     13900
     13896     13895     13898     13901     13897     13895     13898     13899
     13897     13895     13898     13900     13897     13895     13898     13901
     13898     13901     13904     13905     13898     13901     13904     13906
     13898     13901     13904     13907     13899     13898     13901     13902
     13899     13898     13901     13903     13899     13898     13901     13904
     13900     13898     13901     13902     13900     13898     13901     13903
     13900     13898     13901     13904     13901     13904     13907     13908
     13901     13904     13907     13909     13901     13904     13907     13910
     13902     13901     13904     13905     13902     13901     13904     13906
     13902     13901     13904     13907     13903     13901     13904     13905
     13903     13901     13904     13906     13903     13901     13904     13907
     13904     13907     13910     13911     13904     13907     13910     13912
     13904     13907     13910     13913     13905     13904     13907     13908
     13905     13904     13907     13909     13905     13904     13907     13910
     13906     13904     13907     13908     13906     13904     13907     13909
     13906     13904     13907     13910     13907     13910     13913     13914
     13907     13910     13913     13915     13907     13910     13913     13916
     13908     13907     13910     13911     13908     13907     13910     13912
     13908     13907     13910     13913     13909     13907     13910     13911
     13909     13907     13910     13912     13909     13907     13910     13913
     13911     13910     13913     13914     13911     13910     13913     13915
     13911     13910     13913     13916     13912     13910     13913     13914
     13912     13910     13913     13915     13912     13910     13913     13916
     13917     13918     13933     13934     13917     13918     13933     13935
     13917     13918     13933     13939     13918     13917     13921     13922
     13918     13917     13921     13923     13918     13917     13921     13924
     13918     13917     13925     13926     13918     13917     13925     13927
     13918     13917     13925     13928     13918     13917     13929     13930
     13918     13917     13929     13931     13918     13917     13929     13932
     13918     13933     13939     13936     13919     13918     13917     13921
     13919     13918     13917     13925     13919     13918     13917     13929
     13919     13918     13933     13934     13919     13918     13933     13935
     13919     13918     13933     13939     13920     13918     13917     13921
     13920     13918     13917     13925     13920     13918     13917     13929
     13920     13918     13933     13934     13920     13918     13933     13935
     13920     13918     13933     13939     13921     13917     13918     13933
     13921     13917     13925     13926     13921     13917     13925     13927
     13921     13917     13925     13928     13921     13917     13929     13930
     13921     13917     13929     13931     13921     13917     13929     13932
     13922     13921     13917     13925     13922     13921     13917     13929
     13923     13921     13917     13925     13923     13921     13917     13929
     13924     13921     13917     13925     13924     13921     13917     13929
     13925     13917     13918     13933     13925     13917     13929     13930
     13925     13917     13929     13931     13925     13917     13929     13932
     13926     13925     13917     13929     13927     13925     13917     13929
     13928     13925     13917     13929     13929     13917     13918     13933
     13933     13939     13936     13937     13933     13939     13936     13938
     13933     13939     13936     13940     13934     13933     13939     13936
     13935     13933     13939     13936     13936     13940     13941     13942
     13936     13940     13941     13943     13936     13940     13941     13944
     13937     13936     13940     13941     13938     13936     13940     13941
     13939     13936     13940     13941     13940     13941     13944     13945
     13940     13941     13944     13946     13940     13941     13944     13952
     13941     13944     13946     13947     13941     13944     13952     13953
     13941     13944     13952     13954     13941     13944     13952     13955
     13942     13941     13944     13945     13942     13941     13944     13946
     13942     13941     13944     13952     13943     13941     13944     13945
     13943     13941     13944     13946     13943     13941     13944     13952
     13944     13946     13947     13948     13944     13946     13947     13949
     13944     13952     13955     13956     13945     13944     13946     13947
     13945     13944     13952     13953     13945     13944     13952     13954
     13945     13944     13952     13955     13946     13944     13952     13953
     13946     13944     13952     13954     13946     13944     13952     13955
     13946     13947     13949     13950     13946     13947     13949     13951
     13946     13947     13949     13961     13947     13946     13944     13952
     13947     13949     13961     13962     13947     13949     13961     13963
     13947     13949     13961     13964     13948     13947     13949     13950
     13948     13947     13949     13951     13948     13947     13949     13961
     13949     13961     13964     13965     13949     13961     13964     13966
     13949     13961     13964     13967     13950     13949     13961     13962
     13950     13949     13961     13963     13950     13949     13961     13964
     13951     13949     13961     13962     13951     13949     13961     13963
     13951     13949     13961     13964     13952     13955     13956     13957
     13952     13955     13956     13958     13953     13952     13955     13956
     13954     13952     13955     13956     13955     13956     13958     13959
     13955     13956     13958     13960     13955     13956     13958     14008
     13956     13958     14008     14009     13956     13958     14008     14010
     13956     13958     14008     14011     13957     13956     13958     13959
     13957     13956     13958     13960     13957     13956     13958     14008
     13958     14008     14011     14012     13958     14008     14011     14013
     13958     14008     14011     14014     13959     13958     14008     14009
     13959     13958     14008     14010     13959     13958     14008     14011
     13960     13958     14008     14009     13960     13958     14008     14010
     13960     13958     14008     14011     13961     13964     13967     13968
     13961     13964     13967     13969     13961     13964     13967     13970
     13962     13961     13964     13965     13962     13961     13964     13966
     13962     13961     13964     13967     13963     13961     13964     13965
     13963     13961     13964     13966     13963     13961     13964     13967
     13964     13967     13970     13971     13964     13967     13970     13972
     13964     13967     13970     13973     13965     13964     13967     13968
     13965     13964     13967     13969     13965     13964     13967     13970
     13966     13964     13967     13968     13966     13964     13967     13969
     13966     13964     13967     13970     13967     13970     13973     13974
     13967     13970     13973     13975     13967     13970     13973     13976
     13968     13967     13970     13971     13968     13967     13970     13972
     13968     13967     13970     13973     13969     13967     13970     13971
     13969     13967     13970     13972     13969     13967     13970     13973
     13970     13973     13976     13977     13970     13973     13976     13978
     13970     13973     13976     13979     13971     13970     13973     13974
     13971     13970     13973     13975     13971     13970     13973     13976
     13972     13970     13973     13974     13972     13970     13973     13975
     13972     13970     13973     13976     13973     13976     13979     13980
     13973     13976     13979     13981     13974     13973     13976     13977
     13974     13973     13976     13978     13974     13973     13976     13979
     13975     13973     13976     13977     13975     13973     13976     13978
     13975     13973     13976     13979     13976     13979     13981     13982
     13976     13979     13981     13983     13977     13976     13979     13980
     13977     13976     13979     13981     13978     13976     13979     13980
     13978     13976     13979     13981     13979     13981     13983     13984
     13979     13981     13983     13985     13979     13981     13983     13986
     13980     13979     13981     13982     13980     13979     13981     13983
     13981     13983     13986     13987     13981     13983     13986     13988
     13981     13983     13986     13989     13982     13981     13983     13984
     13982     13981     13983     13985     13982     13981     13983     13986
     13983     13986     13989     13990     13983     13986     13989     13991
     13983     13986     13989     13992     13984     13983     13986     13987
     13984     13983     13986     13988     13984     13983     13986     13989
     13985     13983     13986     13987     13985     13983     13986     13988
     13985     13983     13986     13989     13986     13989     13992     13993
     13986     13989     13992     13994     13986     13989     13992     13995
     13987     13986     13989     13990     13987     13986     13989     13991
     13987     13986     13989     13992     13988     13986     13989     13990
     13988     13986     13989     13991     13988     13986     13989     13992
     13989     13992     13995     13996     13989     13992     13995     13997
     13989     13992     13995     13998     13990     13989     13992     13993
     13990     13989     13992     13994     13990     13989     13992     13995
     13991     13989     13992     13993     13991     13989     13992     13994
     13991     13989     13992     13995     13992     13995     13998     13999
     13992     13995     13998     14000     13992     13995     13998     14001
     13993     13992     13995     13996     13993     13992     13995     13997
     13993     13992     13995     13998     13994     13992     13995     13996
     13994     13992     13995     13997     13994     13992     13995     13998
     13995     13998     14001     14002     13995     13998     14001     14003
     13995     13998     14001     14004     13996     13995     13998     13999
     13996     13995     13998     14000     13996     13995     13998     14001
     13997     13995     13998     13999     13997     13995     13998     14000
     13997     13995     13998     14001     13998     14001     14004     14005
     13998     14001     14004     14006     13998     14001     14004     14007
     13999     13998     14001     14002     13999     13998     14001     14003
     13999     13998     14001     14004     14000     13998     14001     14002
     14000     13998     14001     14003     14000     13998     14001     14004
     14002     14001     14004     14005     14002     14001     14004     14006
     14002     14001     14004     14007     14003     14001     14004     14005
     14003     14001     14004     14006     14003     14001     14004     14007
     14008     14011     14014     14015     14008     14011     14014     14016
     14008     14011     14014     14017     14009     14008     14011     14012
     14009     14008     14011     14013     14009     14008     14011     14014
     14010     14008     14011     14012     14010     14008     14011     14013
     14010     14008     14011     14014     14011     14014     14017     14018
     14011     14014     14017     14019     14011     14014     14017     14020
     14012     14011     14014     14015     14012     14011     14014     14016
     14012     14011     14014     14017     14013     14011     14014     14015
     14013     14011     14014     14016     14013     14011     14014     14017
     14014     14017     14020     14021     14014     14017     14020     14022
     14014     14017     14020     14023     14015     14014     14017     14018
     14015     14014     14017     14019     14015     14014     14017     14020
     14016     14014     14017     14018     14016     14014     14017     14019
     14016     14014     14017     14020     14017     14020     14023     14024
     14017     14020     14023     14025     14017     14020     14023     14026
     14018     14017     14020     14021     14018     14017     14020     14022
     14018     14017     14020     14023     14019     14017     14020     14021
     14019     14017     14020     14022     14019     14017     14020     14023
     14020     14023     14026     14027     14020     14023     14026     14028
     14020     14023     14026     14029     14021     14020     14023     14024
     14021     14020     14023     14025     14021     14020     14023     14026
     14022     14020     14023     14024     14022     14020     14023     14025
     14022     14020     14023     14026     14023     14026     14029     14030
     14023     14026     14029     14031     14023     14026     14029     14032
     14024     14023     14026     14027     14024     14023     14026     14028
     14024     14023     14026     14029     14025     14023     14026     14027
     14025     14023     14026     14028     14025     14023     14026     14029
     14026     14029     14032     14033     14026     14029     14032     14034
     14026     14029     14032     14035     14027     14026     14029     14030
     14027     14026     14029     14031     14027     14026     14029     14032
     14028     14026     14029     14030     14028     14026     14029     14031
     14028     14026     14029     14032     14029     14032     14035     14036
     14029     14032     14035     14037     14029     14032     14035     14038
     14030     14029     14032     14033     14030     14029     14032     14034
     14030     14029     14032     14035     14031     14029     14032     14033
     14031     14029     14032     14034     14031     14029     14032     14035
     14032     14035     14038     14039     14032     14035     14038     14040
     14032     14035     14038     14041     14033     14032     14035     14036
     14033     14032     14035     14037     14033     14032     14035     14038
     14034     14032     14035     14036     14034     14032     14035     14037
     14034     14032     14035     14038     14035     14038     14041     14042
     14035     14038     14041     14043     14035     14038     14041     14044
     14036     14035     14038     14039     14036     14035     14038     14040
     14036     14035     14038     14041     14037     14035     14038     14039
     14037     14035     14038     14040     14037     14035     14038     14041
     14038     14041     14044     14045     14038     14041     14044     14046
     14038     14041     14044     14047     14039     14038     14041     14042
     14039     14038     14041     14043     14039     14038     14041     14044
     14040     14038     14041     14042     14040     14038     14041     14043
     14040     14038     14041     14044     14041     14044     14047     14048
     14041     14044     14047     14049     14041     14044     14047     14050
     14042     14041     14044     14045     14042     14041     14044     14046
     14042     14041     14044     14047     14043     14041     14044     14045
     14043     14041     14044     14046     14043     14041     14044     14047
     14045     14044     14047     14048     14045     14044     14047     14049
     14045     14044     14047     14050     14046     14044     14047     14048
     14046     14044     14047     14049     14046     14044     14047     14050
     14051     14052     14067     14068     14051     14052     14067     14069
     14051     14052     14067     14073     14052     14051     14055     14056
     14052     14051     14055     14057     14052     14051     14055     14058
     14052     14051     14059     14060     14052     14051     14059     14061
     14052     14051     14059     14062     14052     14051     14063     14064
     14052     14051     14063     14065     14052     14051     14063     14066
     14052     14067     14073     14070     14053     14052     14051     14055
     14053     14052     14051     14059     14053     14052     14051     14063
     14053     14052     14067     14068     14053     14052     14067     14069
     14053     14052     14067     14073     14054     14052     14051     14055
     14054     14052     14051     14059     14054     14052     14051     14063
     14054     14052     14067     14068     14054     14052     14067     14069
     14054     14052     14067     14073     14055     14051     14052     14067
     14055     14051     14059     14060     14055     14051     14059     14061
     14055     14051     14059     14062     14055     14051     14063     14064
     14055     14051     14063     14065     14055     14051     14063     14066
     14056     14055     14051     14059     14056     14055     14051     14063
     14057     14055     14051     14059     14057     14055     14051     14063
     14058     14055     14051     14059     14058     14055     14051     14063
     14059     14051     14052     14067     14059     14051     14063     14064
     14059     14051     14063     14065     14059     14051     14063     14066
     14060     14059     14051     14063     14061     14059     14051     14063
     14062     14059     14051     14063     14063     14051     14052     14067
     14067     14073     14070     14071     14067     14073     14070     14072
     14067     14073     14070     14074     14068     14067     14073     14070
     14069     14067     14073     14070     14070     14074     14075     14076
     14070     14074     14075     14077     14070     14074     14075     14078
     14071     14070     14074     14075     14072     14070     14074     14075
     14073     14070     14074     14075     14074     14075     14078     14079
     14074     14075     14078     14080     14074     14075     14078     14086
     14075     14078     14080     14081     14075     14078     14086     14087
     14075     14078     14086     14088     14075     14078     14086     14089
     14076     14075     14078     14079     14076     14075     14078     14080
     14076     14075     14078     14086     14077     14075     14078     14079
     14077     14075     14078     14080     14077     14075     14078     14086
     14078     14080     14081     14082     14078     14080     14081     14083
     14078     14086     14089     14090     14079     14078     14080     14081
     14079     14078     14086     14087     14079     14078     14086     14088
     14079     14078     14086     14089     14080     14078     14086     14087
     14080     14078     14086     14088     14080     14078     14086     14089
     14080     14081     14083     14084     14080     14081     14083     14085
     14080     14081     14083     14095     14081     14080     14078     14086
     14081     14083     14095     14096     14081     14083     14095     14097
     14081     14083     14095     14098     14082     14081     14083     14084
     14082     14081     14083     14085     14082     14081     14083     14095
     14083     14095     14098     14099     14083     14095     14098     14100
     14083     14095     14098     14101     14084     14083     14095     14096
     14084     14083     14095     14097     14084     14083     14095     14098
     14085     14083     14095     14096     14085     14083     14095     14097
     14085     14083     14095     14098     14086     14089     14090     14091
     14086     14089     14090     14092     14087     14086     14089     14090
     14088     14086     14089     14090     14089     14090     14092     14093
     14089     14090     14092     14094     14089     14090     14092     14142
     14090     14092     14142     14143     14090     14092     14142     14144
     14090     14092     14142     14145     14091     14090     14092     14093
     14091     14090     14092     14094     14091     14090     14092     14142
     14092     14142     14145     14146     14092     14142     14145     14147
     14092     14142     14145     14148     14093     14092     14142     14143
     14093     14092     14142     14144     14093     14092     14142     14145
     14094     14092     14142     14143     14094     14092     14142     14144
     14094     14092     14142     14145     14095     14098     14101     14102
     14095     14098     14101     14103     14095     14098     14101     14104
     14096     14095     14098     14099     14096     14095     14098     14100
     14096     14095     14098     14101     14097     14095     14098     14099
     14097     14095     14098     14100     14097     14095     14098     14101
     14098     14101     14104     14105     14098     14101     14104     14106
     14098     14101     14104     14107     14099     14098     14101     14102
     14099     14098     14101     14103     14099     14098     14101     14104
     14100     14098     14101     14102     14100     14098     14101     14103
     14100     14098     14101     14104     14101     14104     14107     14108
     14101     14104     14107     14109     14101     14104     14107     14110
     14102     14101     14104     14105     14102     14101     14104     14106
     14102     14101     14104     14107     14103     14101     14104     14105
     14103     14101     14104     14106     14103     14101     14104     14107
     14104     14107     14110     14111     14104     14107     14110     14112
     14104     14107     14110     14113     14105     14104     14107     14108
     14105     14104     14107     14109     14105     14104     14107     14110
     14106     14104     14107     14108     14106     14104     14107     14109
     14106     14104     14107     14110     14107     14110     14113     14114
     14107     14110     14113     14115     14108     14107     14110     14111
     14108     14107     14110     14112     14108     14107     14110     14113
     14109     14107     14110     14111     14109     14107     14110     14112
     14109     14107     14110     14113     14110     14113     14115     14116
     14110     14113     14115     14117     14111     14110     14113     14114
     14111     14110     14113     14115     14112     14110     14113     14114
     14112     14110     14113     14115     14113     14115     14117     14118
     14113     14115     14117     14119     14113     14115     14117     14120
     14114     14113     14115     14116     14114     14113     14115     14117
     14115     14117     14120     14121     14115     14117     14120     14122
     14115     14117     14120     14123     14116     14115     14117     14118
     14116     14115     14117     14119     14116     14115     14117     14120
     14117     14120     14123     14124     14117     14120     14123     14125
     14117     14120     14123     14126     14118     14117     14120     14121
     14118     14117     14120     14122     14118     14117     14120     14123
     14119     14117     14120     14121     14119     14117     14120     14122
     14119     14117     14120     14123     14120     14123     14126     14127
     14120     14123     14126     14128     14120     14123     14126     14129
     14121     14120     14123     14124     14121     14120     14123     14125
     14121     14120     14123     14126     14122     14120     14123     14124
     14122     14120     14123     14125     14122     14120     14123     14126
     14123     14126     14129     14130     14123     14126     14129     14131
     14123     14126     14129     14132     14124     14123     14126     14127
     14124     14123     14126     14128     14124     14123     14126     14129
     14125     14123     14126     14127     14125     14123     14126     14128
     14125     14123     14126     14129     14126     14129     14132     14133
     14126     14129     14132     14134     14126     14129     14132     14135
     14127     14126     14129     14130     14127     14126     14129     14131
     14127     14126     14129     14132     14128     14126     14129     14130
     14128     14126     14129     14131     14128     14126     14129     14132
     14129     14132     14135     14136     14129     14132     14135     14137
     14129     14132     14135     14138     14130     14129     14132     14133
     14130     14129     14132     14134     14130     14129     14132     14135
     14131     14129     14132     14133     14131     14129     14132     14134
     14131     14129     14132     14135     14132     14135     14138     14139
     14132     14135     14138     14140     14132     14135     14138     14141
     14133     14132     14135     14136     14133     14132     14135     14137
     14133     14132     14135     14138     14134     14132     14135     14136
     14134     14132     14135     14137     14134     14132     14135     14138
     14136     14135     14138     14139     14136     14135     14138     14140
     14136     14135     14138     14141     14137     14135     14138     14139
     14137     14135     14138     14140     14137     14135     14138     14141
     14142     14145     14148     14149     14142     14145     14148     14150
     14142     14145     14148     14151     14143     14142     14145     14146
     14143     14142     14145     14147     14143     14142     14145     14148
     14144     14142     14145     14146     14144     14142     14145     14147
     14144     14142     14145     14148     14145     14148     14151     14152
     14145     14148     14151     14153     14145     14148     14151     14154
     14146     14145     14148     14149     14146     14145     14148     14150
     14146     14145     14148     14151     14147     14145     14148     14149
     14147     14145     14148     14150     14147     14145     14148     14151
     14148     14151     14154     14155     14148     14151     14154     14156
     14148     14151     14154     14157     14149     14148     14151     14152
     14149     14148     14151     14153     14149     14148     14151     14154
     14150     14148     14151     14152     14150     14148     14151     14153
     14150     14148     14151     14154     14151     14154     14157     14158
     14151     14154     14157     14159     14151     14154     14157     14160
     14152     14151     14154     14155     14152     14151     14154     14156
     14152     14151     14154     14157     14153     14151     14154     14155
     14153     14151     14154     14156     14153     14151     14154     14157
     14154     14157     14160     14161     14154     14157     14160     14162
     14154     14157     14160     14163     14155     14154     14157     14158
     14155     14154     14157     14159     14155     14154     14157     14160
     14156     14154     14157     14158     14156     14154     14157     14159
     14156     14154     14157     14160     14157     14160     14163     14164
     14157     14160     14163     14165     14157     14160     14163     14166
     14158     14157     14160     14161     14158     14157     14160     14162
     14158     14157     14160     14163     14159     14157     14160     14161
     14159     14157     14160     14162     14159     14157     14160     14163
     14160     14163     14166     14167     14160     14163     14166     14168
     14160     14163     14166     14169     14161     14160     14163     14164
     14161     14160     14163     14165     14161     14160     14163     14166
     14162     14160     14163     14164     14162     14160     14163     14165
     14162     14160     14163     14166     14163     14166     14169     14170
     14163     14166     14169     14171     14163     14166     14169     14172
     14164     14163     14166     14167     14164     14163     14166     14168
     14164     14163     14166     14169     14165     14163     14166     14167
     14165     14163     14166     14168     14165     14163     14166     14169
     14166     14169     14172     14173     14166     14169     14172     14174
     14166     14169     14172     14175     14167     14166     14169     14170
     14167     14166     14169     14171     14167     14166     14169     14172
     14168     14166     14169     14170     14168     14166     14169     14171
     14168     14166     14169     14172     14169     14172     14175     14176
     14169     14172     14175     14177     14169     14172     14175     14178
     14170     14169     14172     14173     14170     14169     14172     14174
     14170     14169     14172     14175     14171     14169     14172     14173
     14171     14169     14172     14174     14171     14169     14172     14175
     14172     14175     14178     14179     14172     14175     14178     14180
     14172     14175     14178     14181     14173     14172     14175     14176
     14173     14172     14175     14177     14173     14172     14175     14178
     14174     14172     14175     14176     14174     14172     14175     14177
     14174     14172     14175     14178     14175     14178     14181     14182
     14175     14178     14181     14183     14175     14178     14181     14184
     14176     14175     14178     14179     14176     14175     14178     14180
     14176     14175     14178     14181     14177     14175     14178     14179
     14177     14175     14178     14180     14177     14175     14178     14181
     14179     14178     14181     14182     14179     14178     14181     14183
     14179     14178     14181     14184     14180     14178     14181     14182
     14180     14178     14181     14183     14180     14178     14181     14184
     14185     14186     14201     14202     14185     14186     14201     14203
     14185     14186     14201     14207     14186     14185     14189     14190
     14186     14185     14189     14191     14186     14185     14189     14192
     14186     14185     14193     14194     14186     14185     14193     14195
     14186     14185     14193     14196     14186     14185     14197     14198
     14186     14185     14197     14199     14186     14185     14197     14200
     14186     14201     14207     14204     14187     14186     14185     14189
     14187     14186     14185     14193     14187     14186     14185     14197
     14187     14186     14201     14202     14187     14186     14201     14203
     14187     14186     14201     14207     14188     14186     14185     14189
     14188     14186     14185     14193     14188     14186     14185     14197
     14188     14186     14201     14202     14188     14186     14201     14203
     14188     14186     14201     14207     14189     14185     14186     14201
     14189     14185     14193     14194     14189     14185     14193     14195
     14189     14185     14193     14196     14189     14185     14197     14198
     14189     14185     14197     14199     14189     14185     14197     14200
     14190     14189     14185     14193     14190     14189     14185     14197
     14191     14189     14185     14193     14191     14189     14185     14197
     14192     14189     14185     14193     14192     14189     14185     14197
     14193     14185     14186     14201     14193     14185     14197     14198
     14193     14185     14197     14199     14193     14185     14197     14200
     14194     14193     14185     14197     14195     14193     14185     14197
     14196     14193     14185     14197     14197     14185     14186     14201
     14201     14207     14204     14205     14201     14207     14204     14206
     14201     14207     14204     14208     14202     14201     14207     14204
     14203     14201     14207     14204     14204     14208     14209     14210
     14204     14208     14209     14211     14204     14208     14209     14212
     14205     14204     14208     14209     14206     14204     14208     14209
     14207     14204     14208     14209     14208     14209     14212     14213
     14208     14209     14212     14214     14208     14209     14212     14220
     14209     14212     14214     14215     14209     14212     14220     14221
     14209     14212     14220     14222     14209     14212     14220     14223
     14210     14209     14212     14213     14210     14209     14212     14214
     14210     14209     14212     14220     14211     14209     14212     14213
     14211     14209     14212     14214     14211     14209     14212     14220
     14212     14214     14215     14216     14212     14214     14215     14217
     14212     14220     14223     14224     14213     14212     14214     14215
     14213     14212     14220     14221     14213     14212     14220     14222
     14213     14212     14220     14223     14214     14212     14220     14221
     14214     14212     14220     14222     14214     14212     14220     14223
     14214     14215     14217     14218     14214     14215     14217     14219
     14214     14215     14217     14229     14215     14214     14212     14220
     14215     14217     14229     14230     14215     14217     14229     14231
     14215     14217     14229     14232     14216     14215     14217     14218
     14216     14215     14217     14219     14216     14215     14217     14229
     14217     14229     14232     14233     14217     14229     14232     14234
     14217     14229     14232     14235     14218     14217     14229     14230
     14218     14217     14229     14231     14218     14217     14229     14232
     14219     14217     14229     14230     14219     14217     14229     14231
     14219     14217     14229     14232     14220     14223     14224     14225
     14220     14223     14224     14226     14221     14220     14223     14224
     14222     14220     14223     14224     14223     14224     14226     14227
     14223     14224     14226     14228     14223     14224     14226     14276
     14224     14226     14276     14277     14224     14226     14276     14278
     14224     14226     14276     14279     14225     14224     14226     14227
     14225     14224     14226     14228     14225     14224     14226     14276
     14226     14276     14279     14280     14226     14276     14279     14281
     14226     14276     14279     14282     14227     14226     14276     14277
     14227     14226     14276     14278     14227     14226     14276     14279
     14228     14226     14276     14277     14228     14226     14276     14278
     14228     14226     14276     14279     14229     14232     14235     14236
     14229     14232     14235     14237     14229     14232     14235     14238
     14230     14229     14232     14233     14230     14229     14232     14234
     14230     14229     14232     14235     14231     14229     14232     14233
     14231     14229     14232     14234     14231     14229     14232     14235
     14232     14235     14238     14239     14232     14235     14238     14240
     14232     14235     14238     14241     14233     14232     14235     14236
     14233     14232     14235     14237     14233     14232     14235     14238
     14234     14232     14235     14236     14234     14232     14235     14237
     14234     14232     14235     14238     14235     14238     14241     14242
     14235     14238     14241     14243     14235     14238     14241     14244
     14236     14235     14238     14239     14236     14235     14238     14240
     14236     14235     14238     14241     14237     14235     14238     14239
     14237     14235     14238     14240     14237     14235     14238     14241
     14238     14241     14244     14245     14238     14241     14244     14246
     14238     14241     14244     14247     14239     14238     14241     14242
     14239     14238     14241     14243     14239     14238     14241     14244
     14240     14238     14241     14242     14240     14238     14241     14243
     14240     14238     14241     14244     14241     14244     14247     14248
     14241     14244     14247     14249     14242     14241     14244     14245
     14242     14241     14244     14246     14242     14241     14244     14247
     14243     14241     14244     14245     14243     14241     14244     14246
     14243     14241     14244     14247     14244     14247     14249     14250
     14244     14247     14249     14251     14245     14244     14247     14248
     14245     14244     14247     14249     14246     14244     14247     14248
     14246     14244     14247     14249     14247     14249     14251     14252
     14247     14249     14251     14253     14247     14249     14251     14254
     14248     14247     14249     14250     14248     14247     14249     14251
     14249     14251     14254     14255     14249     14251     14254     14256
     14249     14251     14254     14257     14250     14249     14251     14252
     14250     14249     14251     14253     14250     14249     14251     14254
     14251     14254     14257     14258     14251     14254     14257     14259
     14251     14254     14257     14260     14252     14251     14254     14255
     14252     14251     14254     14256     14252     14251     14254     14257
     14253     14251     14254     14255     14253     14251     14254     14256
     14253     14251     14254     14257     14254     14257     14260     14261
     14254     14257     14260     14262     14254     14257     14260     14263
     14255     14254     14257     14258     14255     14254     14257     14259
     14255     14254     14257     14260     14256     14254     14257     14258
     14256     14254     14257     14259     14256     14254     14257     14260
     14257     14260     14263     14264     14257     14260     14263     14265
     14257     14260     14263     14266     14258     14257     14260     14261
     14258     14257     14260     14262     14258     14257     14260     14263
     14259     14257     14260     14261     14259     14257     14260     14262
     14259     14257     14260     14263     14260     14263     14266     14267
     14260     14263     14266     14268     14260     14263     14266     14269
     14261     14260     14263     14264     14261     14260     14263     14265
     14261     14260     14263     14266     14262     14260     14263     14264
     14262     14260     14263     14265     14262     14260     14263     14266
     14263     14266     14269     14270     14263     14266     14269     14271
     14263     14266     14269     14272     14264     14263     14266     14267
     14264     14263     14266     14268     14264     14263     14266     14269
     14265     14263     14266     14267     14265     14263     14266     14268
     14265     14263     14266     14269     14266     14269     14272     14273
     14266     14269     14272     14274     14266     14269     14272     14275
     14267     14266     14269     14270     14267     14266     14269     14271
     14267     14266     14269     14272     14268     14266     14269     14270
     14268     14266     14269     14271     14268     14266     14269     14272
     14270     14269     14272     14273     14270     14269     14272     14274
     14270     14269     14272     14275     14271     14269     14272     14273
     14271     14269     14272     14274     14271     14269     14272     14275
     14276     14279     14282     14283     14276     14279     14282     14284
     14276     14279     14282     14285     14277     14276     14279     14280
     14277     14276     14279     14281     14277     14276     14279     14282
     14278     14276     14279     14280     14278     14276     14279     14281
     14278     14276     14279     14282     14279     14282     14285     14286
     14279     14282     14285     14287     14279     14282     14285     14288
     14280     14279     14282     14283     14280     14279     14282     14284
     14280     14279     14282     14285     14281     14279     14282     14283
     14281     14279     14282     14284     14281     14279     14282     14285
     14282     14285     14288     14289     14282     14285     14288     14290
     14282     14285     14288     14291     14283     14282     14285     14286
     14283     14282     14285     14287     14283     14282     14285     14288
     14284     14282     14285     14286     14284     14282     14285     14287
     14284     14282     14285     14288     14285     14288     14291     14292
     14285     14288     14291     14293     14285     14288     14291     14294
     14286     14285     14288     14289     14286     14285     14288     14290
     14286     14285     14288     14291     14287     14285     14288     14289
     14287     14285     14288     14290     14287     14285     14288     14291
     14288     14291     14294     14295     14288     14291     14294     14296
     14288     14291     14294     14297     14289     14288     14291     14292
     14289     14288     14291     14293     14289     14288     14291     14294
     14290     14288     14291     14292     14290     14288     14291     14293
     14290     14288     14291     14294     14291     14294     14297     14298
     14291     14294     14297     14299     14291     14294     14297     14300
     14292     14291     14294     14295     14292     14291     14294     14296
     14292     14291     14294     14297     14293     14291     14294     14295
     14293     14291     14294     14296     14293     14291     14294     14297
     14294     14297     14300     14301     14294     14297     14300     14302
     14294     14297     14300     14303     14295     14294     14297     14298
     14295     14294     14297     14299     14295     14294     14297     14300
     14296     14294     14297     14298     14296     14294     14297     14299
     14296     14294     14297     14300     14297     14300     14303     14304
     14297     14300     14303     14305     14297     14300     14303     14306
     14298     14297     14300     14301     14298     14297     14300     14302
     14298     14297     14300     14303     14299     14297     14300     14301
     14299     14297     14300     14302     14299     14297     14300     14303
     14300     14303     14306     14307     14300     14303     14306     14308
     14300     14303     14306     14309     14301     14300     14303     14304
     14301     14300     14303     14305     14301     14300     14303     14306
     14302     14300     14303     14304     14302     14300     14303     14305
     14302     14300     14303     14306     14303     14306     14309     14310
     14303     14306     14309     14311     14303     14306     14309     14312
     14304     14303     14306     14307     14304     14303     14306     14308
     14304     14303     14306     14309     14305     14303     14306     14307
     14305     14303     14306     14308     14305     14303     14306     14309
     14306     14309     14312     14313     14306     14309     14312     14314
     14306     14309     14312     14315     14307     14306     14309     14310
     14307     14306     14309     14311     14307     14306     14309     14312
     14308     14306     14309     14310     14308     14306     14309     14311
     14308     14306     14309     14312     14309     14312     14315     14316
     14309     14312     14315     14317     14309     14312     14315     14318
     14310     14309     14312     14313     14310     14309     14312     14314
     14310     14309     14312     14315     14311     14309     14312     14313
     14311     14309     14312     14314     14311     14309     14312     14315
     14313     14312     14315     14316     14313     14312     14315     14317
     14313     14312     14315     14318     14314     14312     14315     14316
     14314     14312     14315     14317     14314     14312     14315     14318
     14319     14320     14335     14336     14319     14320     14335     14337
     14319     14320     14335     14341     14320     14319     14323     14324
     14320     14319     14323     14325     14320     14319     14323     14326
     14320     14319     14327     14328     14320     14319     14327     14329
     14320     14319     14327     14330     14320     14319     14331     14332
     14320     14319     14331     14333     14320     14319     14331     14334
     14320     14335     14341     14338     14321     14320     14319     14323
     14321     14320     14319     14327     14321     14320     14319     14331
     14321     14320     14335     14336     14321     14320     14335     14337
     14321     14320     14335     14341     14322     14320     14319     14323
     14322     14320     14319     14327     14322     14320     14319     14331
     14322     14320     14335     14336     14322     14320     14335     14337
     14322     14320     14335     14341     14323     14319     14320     14335
     14323     14319     14327     14328     14323     14319     14327     14329
     14323     14319     14327     14330     14323     14319     14331     14332
     14323     14319     14331     14333     14323     14319     14331     14334
     14324     14323     14319     14327     14324     14323     14319     14331
     14325     14323     14319     14327     14325     14323     14319     14331
     14326     14323     14319     14327     14326     14323     14319     14331
     14327     14319     14320     14335     14327     14319     14331     14332
     14327     14319     14331     14333     14327     14319     14331     14334
     14328     14327     14319     14331     14329     14327     14319     14331
     14330     14327     14319     14331     14331     14319     14320     14335
     14335     14341     14338     14339     14335     14341     14338     14340
     14335     14341     14338     14342     14336     14335     14341     14338
     14337     14335     14341     14338     14338     14342     14343     14344
     14338     14342     14343     14345     14338     14342     14343     14346
     14339     14338     14342     14343     14340     14338     14342     14343
     14341     14338     14342     14343     14342     14343     14346     14347
     14342     14343     14346     14348     14342     14343     14346     14354
     14343     14346     14348     14349     14343     14346     14354     14355
     14343     14346     14354     14356     14343     14346     14354     14357
     14344     14343     14346     14347     14344     14343     14346     14348
     14344     14343     14346     14354     14345     14343     14346     14347
     14345     14343     14346     14348     14345     14343     14346     14354
     14346     14348     14349     14350     14346     14348     14349     14351
     14346     14354     14357     14358     14347     14346     14348     14349
     14347     14346     14354     14355     14347     14346     14354     14356
     14347     14346     14354     14357     14348     14346     14354     14355
     14348     14346     14354     14356     14348     14346     14354     14357
     14348     14349     14351     14352     14348     14349     14351     14353
     14348     14349     14351     14363     14349     14348     14346     14354
     14349     14351     14363     14364     14349     14351     14363     14365
     14349     14351     14363     14366     14350     14349     14351     14352
     14350     14349     14351     14353     14350     14349     14351     14363
     14351     14363     14366     14367     14351     14363     14366     14368
     14351     14363     14366     14369     14352     14351     14363     14364
     14352     14351     14363     14365     14352     14351     14363     14366
     14353     14351     14363     14364     14353     14351     14363     14365
     14353     14351     14363     14366     14354     14357     14358     14359
     14354     14357     14358     14360     14355     14354     14357     14358
     14356     14354     14357     14358     14357     14358     14360     14361
     14357     14358     14360     14362     14357     14358     14360     14410
     14358     14360     14410     14411     14358     14360     14410     14412
     14358     14360     14410     14413     14359     14358     14360     14361
     14359     14358     14360     14362     14359     14358     14360     14410
     14360     14410     14413     14414     14360     14410     14413     14415
     14360     14410     14413     14416     14361     14360     14410     14411
     14361     14360     14410     14412     14361     14360     14410     14413
     14362     14360     14410     14411     14362     14360     14410     14412
     14362     14360     14410     14413     14363     14366     14369     14370
     14363     14366     14369     14371     14363     14366     14369     14372
     14364     14363     14366     14367     14364     14363     14366     14368
     14364     14363     14366     14369     14365     14363     14366     14367
     14365     14363     14366     14368     14365     14363     14366     14369
     14366     14369     14372     14373     14366     14369     14372     14374
     14366     14369     14372     14375     14367     14366     14369     14370
     14367     14366     14369     14371     14367     14366     14369     14372
     14368     14366     14369     14370     14368     14366     14369     14371
     14368     14366     14369     14372     14369     14372     14375     14376
     14369     14372     14375     14377     14369     14372     14375     14378
     14370     14369     14372     14373     14370     14369     14372     14374
     14370     14369     14372     14375     14371     14369     14372     14373
     14371     14369     14372     14374     14371     14369     14372     14375
     14372     14375     14378     14379     14372     14375     14378     14380
     14372     14375     14378     14381     14373     14372     14375     14376
     14373     14372     14375     14377     14373     14372     14375     14378
     14374     14372     14375     14376     14374     14372     14375     14377
     14374     14372     14375     14378     14375     14378     14381     14382
     14375     14378     14381     14383     14376     14375     14378     14379
     14376     14375     14378     14380     14376     14375     14378     14381
     14377     14375     14378     14379     14377     14375     14378     14380
     14377     14375     14378     14381     14378     14381     14383     14384
     14378     14381     14383     14385     14379     14378     14381     14382
     14379     14378     14381     14383     14380     14378     14381     14382
     14380     14378     14381     14383     14381     14383     14385     14386
     14381     14383     14385     14387     14381     14383     14385     14388
     14382     14381     14383     14384     14382     14381     14383     14385
     14383     14385     14388     14389     14383     14385     14388     14390
     14383     14385     14388     14391     14384     14383     14385     14386
     14384     14383     14385     14387     14384     14383     14385     14388
     14385     14388     14391     14392     14385     14388     14391     14393
     14385     14388     14391     14394     14386     14385     14388     14389
     14386     14385     14388     14390     14386     14385     14388     14391
     14387     14385     14388     14389     14387     14385     14388     14390
     14387     14385     14388     14391     14388     14391     14394     14395
     14388     14391     14394     14396     14388     14391     14394     14397
     14389     14388     14391     14392     14389     14388     14391     14393
     14389     14388     14391     14394     14390     14388     14391     14392
     14390     14388     14391     14393     14390     14388     14391     14394
     14391     14394     14397     14398     14391     14394     14397     14399
     14391     14394     14397     14400     14392     14391     14394     14395
     14392     14391     14394     14396     14392     14391     14394     14397
     14393     14391     14394     14395     14393     14391     14394     14396
     14393     14391     14394     14397     14394     14397     14400     14401
     14394     14397     14400     14402     14394     14397     14400     14403
     14395     14394     14397     14398     14395     14394     14397     14399
     14395     14394     14397     14400     14396     14394     14397     14398
     14396     14394     14397     14399     14396     14394     14397     14400
     14397     14400     14403     14404     14397     14400     14403     14405
     14397     14400     14403     14406     14398     14397     14400     14401
     14398     14397     14400     14402     14398     14397     14400     14403
     14399     14397     14400     14401     14399     14397     14400     14402
     14399     14397     14400     14403     14400     14403     14406     14407
     14400     14403     14406     14408     14400     14403     14406     14409
     14401     14400     14403     14404     14401     14400     14403     14405
     14401     14400     14403     14406     14402     14400     14403     14404
     14402     14400     14403     14405     14402     14400     14403     14406
     14404     14403     14406     14407     14404     14403     14406     14408
     14404     14403     14406     14409     14405     14403     14406     14407
     14405     14403     14406     14408     14405     14403     14406     14409
     14410     14413     14416     14417     14410     14413     14416     14418
     14410     14413     14416     14419     14411     14410     14413     14414
     14411     14410     14413     14415     14411     14410     14413     14416
     14412     14410     14413     14414     14412     14410     14413     14415
     14412     14410     14413     14416     14413     14416     14419     14420
     14413     14416     14419     14421     14413     14416     14419     14422
     14414     14413     14416     14417     14414     14413     14416     14418
     14414     14413     14416     14419     14415     14413     14416     14417
     14415     14413     14416     14418     14415     14413     14416     14419
     14416     14419     14422     14423     14416     14419     14422     14424
     14416     14419     14422     14425     14417     14416     14419     14420
     14417     14416     14419     14421     14417     14416     14419     14422
     14418     14416     14419     14420     14418     14416     14419     14421
     14418     14416     14419     14422     14419     14422     14425     14426
     14419     14422     14425     14427     14419     14422     14425     14428
     14420     14419     14422     14423     14420     14419     14422     14424
     14420     14419     14422     14425     14421     14419     14422     14423
     14421     14419     14422     14424     14421     14419     14422     14425
     14422     14425     14428     14429     14422     14425     14428     14430
     14422     14425     14428     14431     14423     14422     14425     14426
     14423     14422     14425     14427     14423     14422     14425     14428
     14424     14422     14425     14426     14424     14422     14425     14427
     14424     14422     14425     14428     14425     14428     14431     14432
     14425     14428     14431     14433     14425     14428     14431     14434
     14426     14425     14428     14429     14426     14425     14428     14430
     14426     14425     14428     14431     14427     14425     14428     14429
     14427     14425     14428     14430     14427     14425     14428     14431
     14428     14431     14434     14435     14428     14431     14434     14436
     14428     14431     14434     14437     14429     14428     14431     14432
     14429     14428     14431     14433     14429     14428     14431     14434
     14430     14428     14431     14432     14430     14428     14431     14433
     14430     14428     14431     14434     14431     14434     14437     14438
     14431     14434     14437     14439     14431     14434     14437     14440
     14432     14431     14434     14435     14432     14431     14434     14436
     14432     14431     14434     14437     14433     14431     14434     14435
     14433     14431     14434     14436     14433     14431     14434     14437
     14434     14437     14440     14441     14434     14437     14440     14442
     14434     14437     14440     14443     14435     14434     14437     14438
     14435     14434     14437     14439     14435     14434     14437     14440
     14436     14434     14437     14438     14436     14434     14437     14439
     14436     14434     14437     14440     14437     14440     14443     14444
     14437     14440     14443     14445     14437     14440     14443     14446
     14438     14437     14440     14441     14438     14437     14440     14442
     14438     14437     14440     14443     14439     14437     14440     14441
     14439     14437     14440     14442     14439     14437     14440     14443
     14440     14443     14446     14447     14440     14443     14446     14448
     14440     14443     14446     14449     14441     14440     14443     14444
     14441     14440     14443     14445     14441     14440     14443     14446
     14442     14440     14443     14444     14442     14440     14443     14445
     14442     14440     14443     14446     14443     14446     14449     14450
     14443     14446     14449     14451     14443     14446     14449     14452
     14444     14443     14446     14447     14444     14443     14446     14448
     14444     14443     14446     14449     14445     14443     14446     14447
     14445     14443     14446     14448     14445     14443     14446     14449
     14447     14446     14449     14450     14447     14446     14449     14451
     14447     14446     14449     14452     14448     14446     14449     14450
     14448     14446     14449     14451     14448     14446     14449     14452
     14453     14454     14469     14470     14453     14454     14469     14471
     14453     14454     14469     14475     14454     14453     14457     14458
     14454     14453     14457     14459     14454     14453     14457     14460
     14454     14453     14461     14462     14454     14453     14461     14463
     14454     14453     14461     14464     14454     14453     14465     14466
     14454     14453     14465     14467     14454     14453     14465     14468
     14454     14469     14475     14472     14455     14454     14453     14457
     14455     14454     14453     14461     14455     14454     14453     14465
     14455     14454     14469     14470     14455     14454     14469     14471
     14455     14454     14469     14475     14456     14454     14453     14457
     14456     14454     14453     14461     14456     14454     14453     14465
     14456     14454     14469     14470     14456     14454     14469     14471
     14456     14454     14469     14475     14457     14453     14454     14469
     14457     14453     14461     14462     14457     14453     14461     14463
     14457     14453     14461     14464     14457     14453     14465     14466
     14457     14453     14465     14467     14457     14453     14465     14468
     14458     14457     14453     14461     14458     14457     14453     14465
     14459     14457     14453     14461     14459     14457     14453     14465
     14460     14457     14453     14461     14460     14457     14453     14465
     14461     14453     14454     14469     14461     14453     14465     14466
     14461     14453     14465     14467     14461     14453     14465     14468
     14462     14461     14453     14465     14463     14461     14453     14465
     14464     14461     14453     14465     14465     14453     14454     14469
     14469     14475     14472     14473     14469     14475     14472     14474
     14469     14475     14472     14476     14470     14469     14475     14472
     14471     14469     14475     14472     14472     14476     14477     14478
     14472     14476     14477     14479     14472     14476     14477     14480
     14473     14472     14476     14477     14474     14472     14476     14477
     14475     14472     14476     14477     14476     14477     14480     14481
     14476     14477     14480     14482     14476     14477     14480     14488
     14477     14480     14482     14483     14477     14480     14488     14489
     14477     14480     14488     14490     14477     14480     14488     14491
     14478     14477     14480     14481     14478     14477     14480     14482
     14478     14477     14480     14488     14479     14477     14480     14481
     14479     14477     14480     14482     14479     14477     14480     14488
     14480     14482     14483     14484     14480     14482     14483     14485
     14480     14488     14491     14492     14481     14480     14482     14483
     14481     14480     14488     14489     14481     14480     14488     14490
     14481     14480     14488     14491     14482     14480     14488     14489
     14482     14480     14488     14490     14482     14480     14488     14491
     14482     14483     14485     14486     14482     14483     14485     14487
     14482     14483     14485     14497     14483     14482     14480     14488
     14483     14485     14497     14498     14483     14485     14497     14499
     14483     14485     14497     14500     14484     14483     14485     14486
     14484     14483     14485     14487     14484     14483     14485     14497
     14485     14497     14500     14501     14485     14497     14500     14502
     14485     14497     14500     14503     14486     14485     14497     14498
     14486     14485     14497     14499     14486     14485     14497     14500
     14487     14485     14497     14498     14487     14485     14497     14499
     14487     14485     14497     14500     14488     14491     14492     14493
     14488     14491     14492     14494     14489     14488     14491     14492
     14490     14488     14491     14492     14491     14492     14494     14495
     14491     14492     14494     14496     14491     14492     14494     14544
     14492     14494     14544     14545     14492     14494     14544     14546
     14492     14494     14544     14547     14493     14492     14494     14495
     14493     14492     14494     14496     14493     14492     14494     14544
     14494     14544     14547     14548     14494     14544     14547     14549
     14494     14544     14547     14550     14495     14494     14544     14545
     14495     14494     14544     14546     14495     14494     14544     14547
     14496     14494     14544     14545     14496     14494     14544     14546
     14496     14494     14544     14547     14497     14500     14503     14504
     14497     14500     14503     14505     14497     14500     14503     14506
     14498     14497     14500     14501     14498     14497     14500     14502
     14498     14497     14500     14503     14499     14497     14500     14501
     14499     14497     14500     14502     14499     14497     14500     14503
     14500     14503     14506     14507     14500     14503     14506     14508
     14500     14503     14506     14509     14501     14500     14503     14504
     14501     14500     14503     14505     14501     14500     14503     14506
     14502     14500     14503     14504     14502     14500     14503     14505
     14502     14500     14503     14506     14503     14506     14509     14510
     14503     14506     14509     14511     14503     14506     14509     14512
     14504     14503     14506     14507     14504     14503     14506     14508
     14504     14503     14506     14509     14505     14503     14506     14507
     14505     14503     14506     14508     14505     14503     14506     14509
     14506     14509     14512     14513     14506     14509     14512     14514
     14506     14509     14512     14515     14507     14506     14509     14510
     14507     14506     14509     14511     14507     14506     14509     14512
     14508     14506     14509     14510     14508     14506     14509     14511
     14508     14506     14509     14512     14509     14512     14515     14516
     14509     14512     14515     14517     14510     14509     14512     14513
     14510     14509     14512     14514     14510     14509     14512     14515
     14511     14509     14512     14513     14511     14509     14512     14514
     14511     14509     14512     14515     14512     14515     14517     14518
     14512     14515     14517     14519     14513     14512     14515     14516
     14513     14512     14515     14517     14514     14512     14515     14516
     14514     14512     14515     14517     14515     14517     14519     14520
     14515     14517     14519     14521     14515     14517     14519     14522
     14516     14515     14517     14518     14516     14515     14517     14519
     14517     14519     14522     14523     14517     14519     14522     14524
     14517     14519     14522     14525     14518     14517     14519     14520
     14518     14517     14519     14521     14518     14517     14519     14522
     14519     14522     14525     14526     14519     14522     14525     14527
     14519     14522     14525     14528     14520     14519     14522     14523
     14520     14519     14522     14524     14520     14519     14522     14525
     14521     14519     14522     14523     14521     14519     14522     14524
     14521     14519     14522     14525     14522     14525     14528     14529
     14522     14525     14528     14530     14522     14525     14528     14531
     14523     14522     14525     14526     14523     14522     14525     14527
     14523     14522     14525     14528     14524     14522     14525     14526
     14524     14522     14525     14527     14524     14522     14525     14528
     14525     14528     14531     14532     14525     14528     14531     14533
     14525     14528     14531     14534     14526     14525     14528     14529
     14526     14525     14528     14530     14526     14525     14528     14531
     14527     14525     14528     14529     14527     14525     14528     14530
     14527     14525     14528     14531     14528     14531     14534     14535
     14528     14531     14534     14536     14528     14531     14534     14537
     14529     14528     14531     14532     14529     14528     14531     14533
     14529     14528     14531     14534     14530     14528     14531     14532
     14530     14528     14531     14533     14530     14528     14531     14534
     14531     14534     14537     14538     14531     14534     14537     14539
     14531     14534     14537     14540     14532     14531     14534     14535
     14532     14531     14534     14536     14532     14531     14534     14537
     14533     14531     14534     14535     14533     14531     14534     14536
     14533     14531     14534     14537     14534     14537     14540     14541
     14534     14537     14540     14542     14534     14537     14540     14543
     14535     14534     14537     14538     14535     14534     14537     14539
     14535     14534     14537     14540     14536     14534     14537     14538
     14536     14534     14537     14539     14536     14534     14537     14540
     14538     14537     14540     14541     14538     14537     14540     14542
     14538     14537     14540     14543     14539     14537     14540     14541
     14539     14537     14540     14542     14539     14537     14540     14543
     14544     14547     14550     14551     14544     14547     14550     14552
     14544     14547     14550     14553     14545     14544     14547     14548
     14545     14544     14547     14549     14545     14544     14547     14550
     14546     14544     14547     14548     14546     14544     14547     14549
     14546     14544     14547     14550     14547     14550     14553     14554
     14547     14550     14553     14555     14547     14550     14553     14556
     14548     14547     14550     14551     14548     14547     14550     14552
     14548     14547     14550     14553     14549     14547     14550     14551
     14549     14547     14550     14552     14549     14547     14550     14553
     14550     14553     14556     14557     14550     14553     14556     14558
     14550     14553     14556     14559     14551     14550     14553     14554
     14551     14550     14553     14555     14551     14550     14553     14556
     14552     14550     14553     14554     14552     14550     14553     14555
     14552     14550     14553     14556     14553     14556     14559     14560
     14553     14556     14559     14561     14553     14556     14559     14562
     14554     14553     14556     14557     14554     14553     14556     14558
     14554     14553     14556     14559     14555     14553     14556     14557
     14555     14553     14556     14558     14555     14553     14556     14559
     14556     14559     14562     14563     14556     14559     14562     14564
     14556     14559     14562     14565     14557     14556     14559     14560
     14557     14556     14559     14561     14557     14556     14559     14562
     14558     14556     14559     14560     14558     14556     14559     14561
     14558     14556     14559     14562     14559     14562     14565     14566
     14559     14562     14565     14567     14559     14562     14565     14568
     14560     14559     14562     14563     14560     14559     14562     14564
     14560     14559     14562     14565     14561     14559     14562     14563
     14561     14559     14562     14564     14561     14559     14562     14565
     14562     14565     14568     14569     14562     14565     14568     14570
     14562     14565     14568     14571     14563     14562     14565     14566
     14563     14562     14565     14567     14563     14562     14565     14568
     14564     14562     14565     14566     14564     14562     14565     14567
     14564     14562     14565     14568     14565     14568     14571     14572
     14565     14568     14571     14573     14565     14568     14571     14574
     14566     14565     14568     14569     14566     14565     14568     14570
     14566     14565     14568     14571     14567     14565     14568     14569
     14567     14565     14568     14570     14567     14565     14568     14571
     14568     14571     14574     14575     14568     14571     14574     14576
     14568     14571     14574     14577     14569     14568     14571     14572
     14569     14568     14571     14573     14569     14568     14571     14574
     14570     14568     14571     14572     14570     14568     14571     14573
     14570     14568     14571     14574     14571     14574     14577     14578
     14571     14574     14577     14579     14571     14574     14577     14580
     14572     14571     14574     14575     14572     14571     14574     14576
     14572     14571     14574     14577     14573     14571     14574     14575
     14573     14571     14574     14576     14573     14571     14574     14577
     14574     14577     14580     14581     14574     14577     14580     14582
     14574     14577     14580     14583     14575     14574     14577     14578
     14575     14574     14577     14579     14575     14574     14577     14580
     14576     14574     14577     14578     14576     14574     14577     14579
     14576     14574     14577     14580     14577     14580     14583     14584
     14577     14580     14583     14585     14577     14580     14583     14586
     14578     14577     14580     14581     14578     14577     14580     14582
     14578     14577     14580     14583     14579     14577     14580     14581
     14579     14577     14580     14582     14579     14577     14580     14583
     14581     14580     14583     14584     14581     14580     14583     14585
     14581     14580     14583     14586     14582     14580     14583     14584
     14582     14580     14583     14585     14582     14580     14583     14586
     14587     14588     14603     14604     14587     14588     14603     14605
     14587     14588     14603     14609     14588     14587     14591     14592
     14588     14587     14591     14593     14588     14587     14591     14594
     14588     14587     14595     14596     14588     14587     14595     14597
     14588     14587     14595     14598     14588     14587     14599     14600
     14588     14587     14599     14601     14588     14587     14599     14602
     14588     14603     14609     14606     14589     14588     14587     14591
     14589     14588     14587     14595     14589     14588     14587     14599
     14589     14588     14603     14604     14589     14588     14603     14605
     14589     14588     14603     14609     14590     14588     14587     14591
     14590     14588     14587     14595     14590     14588     14587     14599
     14590     14588     14603     14604     14590     14588     14603     14605
     14590     14588     14603     14609     14591     14587     14588     14603
     14591     14587     14595     14596     14591     14587     14595     14597
     14591     14587     14595     14598     14591     14587     14599     14600
     14591     14587     14599     14601     14591     14587     14599     14602
     14592     14591     14587     14595     14592     14591     14587     14599
     14593     14591     14587     14595     14593     14591     14587     14599
     14594     14591     14587     14595     14594     14591     14587     14599
     14595     14587     14588     14603     14595     14587     14599     14600
     14595     14587     14599     14601     14595     14587     14599     14602
     14596     14595     14587     14599     14597     14595     14587     14599
     14598     14595     14587     14599     14599     14587     14588     14603
     14603     14609     14606     14607     14603     14609     14606     14608
     14603     14609     14606     14610     14604     14603     14609     14606
     14605     14603     14609     14606     14606     14610     14611     14612
     14606     14610     14611     14613     14606     14610     14611     14614
     14607     14606     14610     14611     14608     14606     14610     14611
     14609     14606     14610     14611     14610     14611     14614     14615
     14610     14611     14614     14616     14610     14611     14614     14622
     14611     14614     14616     14617     14611     14614     14622     14623
     14611     14614     14622     14624     14611     14614     14622     14625
     14612     14611     14614     14615     14612     14611     14614     14616
     14612     14611     14614     14622     14613     14611     14614     14615
     14613     14611     14614     14616     14613     14611     14614     14622
     14614     14616     14617     14618     14614     14616     14617     14619
     14614     14622     14625     14626     14615     14614     14616     14617
     14615     14614     14622     14623     14615     14614     14622     14624
     14615     14614     14622     14625     14616     14614     14622     14623
     14616     14614     14622     14624     14616     14614     14622     14625
     14616     14617     14619     14620     14616     14617     14619     14621
     14616     14617     14619     14631     14617     14616     14614     14622
     14617     14619     14631     14632     14617     14619     14631     14633
     14617     14619     14631     14634     14618     14617     14619     14620
     14618     14617     14619     14621     14618     14617     14619     14631
     14619     14631     14634     14635     14619     14631     14634     14636
     14619     14631     14634     14637     14620     14619     14631     14632
     14620     14619     14631     14633     14620     14619     14631     14634
     14621     14619     14631     14632     14621     14619     14631     14633
     14621     14619     14631     14634     14622     14625     14626     14627
     14622     14625     14626     14628     14623     14622     14625     14626
     14624     14622     14625     14626     14625     14626     14628     14629
     14625     14626     14628     14630     14625     14626     14628     14678
     14626     14628     14678     14679     14626     14628     14678     14680
     14626     14628     14678     14681     14627     14626     14628     14629
     14627     14626     14628     14630     14627     14626     14628     14678
     14628     14678     14681     14682     14628     14678     14681     14683
     14628     14678     14681     14684     14629     14628     14678     14679
     14629     14628     14678     14680     14629     14628     14678     14681
     14630     14628     14678     14679     14630     14628     14678     14680
     14630     14628     14678     14681     14631     14634     14637     14638
     14631     14634     14637     14639     14631     14634     14637     14640
     14632     14631     14634     14635     14632     14631     14634     14636
     14632     14631     14634     14637     14633     14631     14634     14635
     14633     14631     14634     14636     14633     14631     14634     14637
     14634     14637     14640     14641     14634     14637     14640     14642
     14634     14637     14640     14643     14635     14634     14637     14638
     14635     14634     14637     14639     14635     14634     14637     14640
     14636     14634     14637     14638     14636     14634     14637     14639
     14636     14634     14637     14640     14637     14640     14643     14644
     14637     14640     14643     14645     14637     14640     14643     14646
     14638     14637     14640     14641     14638     14637     14640     14642
     14638     14637     14640     14643     14639     14637     14640     14641
     14639     14637     14640     14642     14639     14637     14640     14643
     14640     14643     14646     14647     14640     14643     14646     14648
     14640     14643     14646     14649     14641     14640     14643     14644
     14641     14640     14643     14645     14641     14640     14643     14646
     14642     14640     14643     14644     14642     14640     14643     14645
     14642     14640     14643     14646     14643     14646     14649     14650
     14643     14646     14649     14651     14644     14643     14646     14647
     14644     14643     14646     14648     14644     14643     14646     14649
     14645     14643     14646     14647     14645     14643     14646     14648
     14645     14643     14646     14649     14646     14649     14651     14652
     14646     14649     14651     14653     14647     14646     14649     14650
     14647     14646     14649     14651     14648     14646     14649     14650
     14648     14646     14649     14651     14649     14651     14653     14654
     14649     14651     14653     14655     14649     14651     14653     14656
     14650     14649     14651     14652     14650     14649     14651     14653
     14651     14653     14656     14657     14651     14653     14656     14658
     14651     14653     14656     14659     14652     14651     14653     14654
     14652     14651     14653     14655     14652     14651     14653     14656
     14653     14656     14659     14660     14653     14656     14659     14661
     14653     14656     14659     14662     14654     14653     14656     14657
     14654     14653     14656     14658     14654     14653     14656     14659
     14655     14653     14656     14657     14655     14653     14656     14658
     14655     14653     14656     14659     14656     14659     14662     14663
     14656     14659     14662     14664     14656     14659     14662     14665
     14657     14656     14659     14660     14657     14656     14659     14661
     14657     14656     14659     14662     14658     14656     14659     14660
     14658     14656     14659     14661     14658     14656     14659     14662
     14659     14662     14665     14666     14659     14662     14665     14667
     14659     14662     14665     14668     14660     14659     14662     14663
     14660     14659     14662     14664     14660     14659     14662     14665
     14661     14659     14662     14663     14661     14659     14662     14664
     14661     14659     14662     14665     14662     14665     14668     14669
     14662     14665     14668     14670     14662     14665     14668     14671
     14663     14662     14665     14666     14663     14662     14665     14667
     14663     14662     14665     14668     14664     14662     14665     14666
     14664     14662     14665     14667     14664     14662     14665     14668
     14665     14668     14671     14672     14665     14668     14671     14673
     14665     14668     14671     14674     14666     14665     14668     14669
     14666     14665     14668     14670     14666     14665     14668     14671
     14667     14665     14668     14669     14667     14665     14668     14670
     14667     14665     14668     14671     14668     14671     14674     14675
     14668     14671     14674     14676     14668     14671     14674     14677
     14669     14668     14671     14672     14669     14668     14671     14673
     14669     14668     14671     14674     14670     14668     14671     14672
     14670     14668     14671     14673     14670     14668     14671     14674
     14672     14671     14674     14675     14672     14671     14674     14676
     14672     14671     14674     14677     14673     14671     14674     14675
     14673     14671     14674     14676     14673     14671     14674     14677
     14678     14681     14684     14685     14678     14681     14684     14686
     14678     14681     14684     14687     14679     14678     14681     14682
     14679     14678     14681     14683     14679     14678     14681     14684
     14680     14678     14681     14682     14680     14678     14681     14683
     14680     14678     14681     14684     14681     14684     14687     14688
     14681     14684     14687     14689     14681     14684     14687     14690
     14682     14681     14684     14685     14682     14681     14684     14686
     14682     14681     14684     14687     14683     14681     14684     14685
     14683     14681     14684     14686     14683     14681     14684     14687
     14684     14687     14690     14691     14684     14687     14690     14692
     14684     14687     14690     14693     14685     14684     14687     14688
     14685     14684     14687     14689     14685     14684     14687     14690
     14686     14684     14687     14688     14686     14684     14687     14689
     14686     14684     14687     14690     14687     14690     14693     14694
     14687     14690     14693     14695     14687     14690     14693     14696
     14688     14687     14690     14691     14688     14687     14690     14692
     14688     14687     14690     14693     14689     14687     14690     14691
     14689     14687     14690     14692     14689     14687     14690     14693
     14690     14693     14696     14697     14690     14693     14696     14698
     14690     14693     14696     14699     14691     14690     14693     14694
     14691     14690     14693     14695     14691     14690     14693     14696
     14692     14690     14693     14694     14692     14690     14693     14695
     14692     14690     14693     14696     14693     14696     14699     14700
     14693     14696     14699     14701     14693     14696     14699     14702
     14694     14693     14696     14697     14694     14693     14696     14698
     14694     14693     14696     14699     14695     14693     14696     14697
     14695     14693     14696     14698     14695     14693     14696     14699
     14696     14699     14702     14703     14696     14699     14702     14704
     14696     14699     14702     14705     14697     14696     14699     14700
     14697     14696     14699     14701     14697     14696     14699     14702
     14698     14696     14699     14700     14698     14696     14699     14701
     14698     14696     14699     14702     14699     14702     14705     14706
     14699     14702     14705     14707     14699     14702     14705     14708
     14700     14699     14702     14703     14700     14699     14702     14704
     14700     14699     14702     14705     14701     14699     14702     14703
     14701     14699     14702     14704     14701     14699     14702     14705
     14702     14705     14708     14709     14702     14705     14708     14710
     14702     14705     14708     14711     14703     14702     14705     14706
     14703     14702     14705     14707     14703     14702     14705     14708
     14704     14702     14705     14706     14704     14702     14705     14707
     14704     14702     14705     14708     14705     14708     14711     14712
     14705     14708     14711     14713     14705     14708     14711     14714
     14706     14705     14708     14709     14706     14705     14708     14710
     14706     14705     14708     14711     14707     14705     14708     14709
     14707     14705     14708     14710     14707     14705     14708     14711
     14708     14711     14714     14715     14708     14711     14714     14716
     14708     14711     14714     14717     14709     14708     14711     14712
     14709     14708     14711     14713     14709     14708     14711     14714
     14710     14708     14711     14712     14710     14708     14711     14713
     14710     14708     14711     14714     14711     14714     14717     14718
     14711     14714     14717     14719     14711     14714     14717     14720
     14712     14711     14714     14715     14712     14711     14714     14716
     14712     14711     14714     14717     14713     14711     14714     14715
     14713     14711     14714     14716     14713     14711     14714     14717
     14715     14714     14717     14718     14715     14714     14717     14719
     14715     14714     14717     14720     14716     14714     14717     14718
     14716     14714     14717     14719     14716     14714     14717     14720
     14721     14722     14737     14738     14721     14722     14737     14739
     14721     14722     14737     14743     14722     14721     14725     14726
     14722     14721     14725     14727     14722     14721     14725     14728
     14722     14721     14729     14730     14722     14721     14729     14731
     14722     14721     14729     14732     14722     14721     14733     14734
     14722     14721     14733     14735     14722     14721     14733     14736
     14722     14737     14743     14740     14723     14722     14721     14725
     14723     14722     14721     14729     14723     14722     14721     14733
     14723     14722     14737     14738     14723     14722     14737     14739
     14723     14722     14737     14743     14724     14722     14721     14725
     14724     14722     14721     14729     14724     14722     14721     14733
     14724     14722     14737     14738     14724     14722     14737     14739
     14724     14722     14737     14743     14725     14721     14722     14737
     14725     14721     14729     14730     14725     14721     14729     14731
     14725     14721     14729     14732     14725     14721     14733     14734
     14725     14721     14733     14735     14725     14721     14733     14736
     14726     14725     14721     14729     14726     14725     14721     14733
     14727     14725     14721     14729     14727     14725     14721     14733
     14728     14725     14721     14729     14728     14725     14721     14733
     14729     14721     14722     14737     14729     14721     14733     14734
     14729     14721     14733     14735     14729     14721     14733     14736
     14730     14729     14721     14733     14731     14729     14721     14733
     14732     14729     14721     14733     14733     14721     14722     14737
     14737     14743     14740     14741     14737     14743     14740     14742
     14737     14743     14740     14744     14738     14737     14743     14740
     14739     14737     14743     14740     14740     14744     14745     14746
     14740     14744     14745     14747     14740     14744     14745     14748
     14741     14740     14744     14745     14742     14740     14744     14745
     14743     14740     14744     14745     14744     14745     14748     14749
     14744     14745     14748     14750     14744     14745     14748     14756
     14745     14748     14750     14751     14745     14748     14756     14757
     14745     14748     14756     14758     14745     14748     14756     14759
     14746     14745     14748     14749     14746     14745     14748     14750
     14746     14745     14748     14756     14747     14745     14748     14749
     14747     14745     14748     14750     14747     14745     14748     14756
     14748     14750     14751     14752     14748     14750     14751     14753
     14748     14756     14759     14760     14749     14748     14750     14751
     14749     14748     14756     14757     14749     14748     14756     14758
     14749     14748     14756     14759     14750     14748     14756     14757
     14750     14748     14756     14758     14750     14748     14756     14759
     14750     14751     14753     14754     14750     14751     14753     14755
     14750     14751     14753     14765     14751     14750     14748     14756
     14751     14753     14765     14766     14751     14753     14765     14767
     14751     14753     14765     14768     14752     14751     14753     14754
     14752     14751     14753     14755     14752     14751     14753     14765
     14753     14765     14768     14769     14753     14765     14768     14770
     14753     14765     14768     14771     14754     14753     14765     14766
     14754     14753     14765     14767     14754     14753     14765     14768
     14755     14753     14765     14766     14755     14753     14765     14767
     14755     14753     14765     14768     14756     14759     14760     14761
     14756     14759     14760     14762     14757     14756     14759     14760
     14758     14756     14759     14760     14759     14760     14762     14763
     14759     14760     14762     14764     14759     14760     14762     14812
     14760     14762     14812     14813     14760     14762     14812     14814
     14760     14762     14812     14815     14761     14760     14762     14763
     14761     14760     14762     14764     14761     14760     14762     14812
     14762     14812     14815     14816     14762     14812     14815     14817
     14762     14812     14815     14818     14763     14762     14812     14813
     14763     14762     14812     14814     14763     14762     14812     14815
     14764     14762     14812     14813     14764     14762     14812     14814
     14764     14762     14812     14815     14765     14768     14771     14772
     14765     14768     14771     14773     14765     14768     14771     14774
     14766     14765     14768     14769     14766     14765     14768     14770
     14766     14765     14768     14771     14767     14765     14768     14769
     14767     14765     14768     14770     14767     14765     14768     14771
     14768     14771     14774     14775     14768     14771     14774     14776
     14768     14771     14774     14777     14769     14768     14771     14772
     14769     14768     14771     14773     14769     14768     14771     14774
     14770     14768     14771     14772     14770     14768     14771     14773
     14770     14768     14771     14774     14771     14774     14777     14778
     14771     14774     14777     14779     14771     14774     14777     14780
     14772     14771     14774     14775     14772     14771     14774     14776
     14772     14771     14774     14777     14773     14771     14774     14775
     14773     14771     14774     14776     14773     14771     14774     14777
     14774     14777     14780     14781     14774     14777     14780     14782
     14774     14777     14780     14783     14775     14774     14777     14778
     14775     14774     14777     14779     14775     14774     14777     14780
     14776     14774     14777     14778     14776     14774     14777     14779
     14776     14774     14777     14780     14777     14780     14783     14784
     14777     14780     14783     14785     14778     14777     14780     14781
     14778     14777     14780     14782     14778     14777     14780     14783
     14779     14777     14780     14781     14779     14777     14780     14782
     14779     14777     14780     14783     14780     14783     14785     14786
     14780     14783     14785     14787     14781     14780     14783     14784
     14781     14780     14783     14785     14782     14780     14783     14784
     14782     14780     14783     14785     14783     14785     14787     14788
     14783     14785     14787     14789     14783     14785     14787     14790
     14784     14783     14785     14786     14784     14783     14785     14787
     14785     14787     14790     14791     14785     14787     14790     14792
     14785     14787     14790     14793     14786     14785     14787     14788
     14786     14785     14787     14789     14786     14785     14787     14790
     14787     14790     14793     14794     14787     14790     14793     14795
     14787     14790     14793     14796     14788     14787     14790     14791
     14788     14787     14790     14792     14788     14787     14790     14793
     14789     14787     14790     14791     14789     14787     14790     14792
     14789     14787     14790     14793     14790     14793     14796     14797
     14790     14793     14796     14798     14790     14793     14796     14799
     14791     14790     14793     14794     14791     14790     14793     14795
     14791     14790     14793     14796     14792     14790     14793     14794
     14792     14790     14793     14795     14792     14790     14793     14796
     14793     14796     14799     14800     14793     14796     14799     14801
     14793     14796     14799     14802     14794     14793     14796     14797
     14794     14793     14796     14798     14794     14793     14796     14799
     14795     14793     14796     14797     14795     14793     14796     14798
     14795     14793     14796     14799     14796     14799     14802     14803
     14796     14799     14802     14804     14796     14799     14802     14805
     14797     14796     14799     14800     14797     14796     14799     14801
     14797     14796     14799     14802     14798     14796     14799     14800
     14798     14796     14799     14801     14798     14796     14799     14802
     14799     14802     14805     14806     14799     14802     14805     14807
     14799     14802     14805     14808     14800     14799     14802     14803
     14800     14799     14802     14804     14800     14799     14802     14805
     14801     14799     14802     14803     14801     14799     14802     14804
     14801     14799     14802     14805     14802     14805     14808     14809
     14802     14805     14808     14810     14802     14805     14808     14811
     14803     14802     14805     14806     14803     14802     14805     14807
     14803     14802     14805     14808     14804     14802     14805     14806
     14804     14802     14805     14807     14804     14802     14805     14808
     14806     14805     14808     14809     14806     14805     14808     14810
     14806     14805     14808     14811     14807     14805     14808     14809
     14807     14805     14808     14810     14807     14805     14808     14811
     14812     14815     14818     14819     14812     14815     14818     14820
     14812     14815     14818     14821     14813     14812     14815     14816
     14813     14812     14815     14817     14813     14812     14815     14818
     14814     14812     14815     14816     14814     14812     14815     14817
     14814     14812     14815     14818     14815     14818     14821     14822
     14815     14818     14821     14823     14815     14818     14821     14824
     14816     14815     14818     14819     14816     14815     14818     14820
     14816     14815     14818     14821     14817     14815     14818     14819
     14817     14815     14818     14820     14817     14815     14818     14821
     14818     14821     14824     14825     14818     14821     14824     14826
     14818     14821     14824     14827     14819     14818     14821     14822
     14819     14818     14821     14823     14819     14818     14821     14824
     14820     14818     14821     14822     14820     14818     14821     14823
     14820     14818     14821     14824     14821     14824     14827     14828
     14821     14824     14827     14829     14821     14824     14827     14830
     14822     14821     14824     14825     14822     14821     14824     14826
     14822     14821     14824     14827     14823     14821     14824     14825
     14823     14821     14824     14826     14823     14821     14824     14827
     14824     14827     14830     14831     14824     14827     14830     14832
     14824     14827     14830     14833     14825     14824     14827     14828
     14825     14824     14827     14829     14825     14824     14827     14830
     14826     14824     14827     14828     14826     14824     14827     14829
     14826     14824     14827     14830     14827     14830     14833     14834
     14827     14830     14833     14835     14827     14830     14833     14836
     14828     14827     14830     14831     14828     14827     14830     14832
     14828     14827     14830     14833     14829     14827     14830     14831
     14829     14827     14830     14832     14829     14827     14830     14833
     14830     14833     14836     14837     14830     14833     14836     14838
     14830     14833     14836     14839     14831     14830     14833     14834
     14831     14830     14833     14835     14831     14830     14833     14836
     14832     14830     14833     14834     14832     14830     14833     14835
     14832     14830     14833     14836     14833     14836     14839     14840
     14833     14836     14839     14841     14833     14836     14839     14842
     14834     14833     14836     14837     14834     14833     14836     14838
     14834     14833     14836     14839     14835     14833     14836     14837
     14835     14833     14836     14838     14835     14833     14836     14839
     14836     14839     14842     14843     14836     14839     14842     14844
     14836     14839     14842     14845     14837     14836     14839     14840
     14837     14836     14839     14841     14837     14836     14839     14842
     14838     14836     14839     14840     14838     14836     14839     14841
     14838     14836     14839     14842     14839     14842     14845     14846
     14839     14842     14845     14847     14839     14842     14845     14848
     14840     14839     14842     14843     14840     14839     14842     14844
     14840     14839     14842     14845     14841     14839     14842     14843
     14841     14839     14842     14844     14841     14839     14842     14845
     14842     14845     14848     14849     14842     14845     14848     14850
     14842     14845     14848     14851     14843     14842     14845     14846
     14843     14842     14845     14847     14843     14842     14845     14848
     14844     14842     14845     14846     14844     14842     14845     14847
     14844     14842     14845     14848     14845     14848     14851     14852
     14845     14848     14851     14853     14845     14848     14851     14854
     14846     14845     14848     14849     14846     14845     14848     14850
     14846     14845     14848     14851     14847     14845     14848     14849
     14847     14845     14848     14850     14847     14845     14848     14851
     14849     14848     14851     14852     14849     14848     14851     14853
     14849     14848     14851     14854     14850     14848     14851     14852
     14850     14848     14851     14853     14850     14848     14851     14854
     14855     14859     14861     14862     14855     14859     14861     14863
     14855     14859     14864     14865     14855     14859     14864     14866
     14855     14859     14864     14870     14856     14855     14859     14860
     14856     14855     14859     14861     14856     14855     14859     14864
     14857     14855     14859     14860     14857     14855     14859     14861
     14857     14855     14859     14864     14858     14855     14859     14860
     14858     14855     14859     14861     14858     14855     14859     14864
     14859     14864     14870     14867     14860     14859     14861     14862
     14860     14859     14861     14863     14860     14859     14864     14865
     14860     14859     14864     14866     14860     14859     14864     14870
     14861     14859     14864     14865     14861     14859     14864     14866
     14861     14859     14864     14870     14862     14861     14859     14864
     14863     14861     14859     14864     14864     14870     14867     14868
     14864     14870     14867     14869     14864     14870     14867     14871
     14865     14864     14870     14867     14866     14864     14870     14867
     14867     14871     14872     14873     14867     14871     14872     14874
     14867     14871     14872     14875     14868     14867     14871     14872
     14869     14867     14871     14872     14870     14867     14871     14872
     14871     14872     14875     14876     14871     14872     14875     14877
     14871     14872     14875     14883     14872     14875     14877     14878
     14872     14875     14883     14884     14872     14875     14883     14885
     14872     14875     14883     14886     14873     14872     14875     14876
     14873     14872     14875     14877     14873     14872     14875     14883
     14874     14872     14875     14876     14874     14872     14875     14877
     14874     14872     14875     14883     14875     14877     14878     14879
     14875     14877     14878     14880     14875     14883     14886     14887
     14876     14875     14877     14878     14876     14875     14883     14884
     14876     14875     14883     14885     14876     14875     14883     14886
     14877     14875     14883     14884     14877     14875     14883     14885
     14877     14875     14883     14886     14877     14878     14880     14881
     14877     14878     14880     14882     14877     14878     14880     14892
     14878     14877     14875     14883     14878     14880     14892     14893
     14878     14880     14892     14894     14878     14880     14892     14895
     14879     14878     14880     14881     14879     14878     14880     14882
     14879     14878     14880     14892     14880     14892     14895     14896
     14880     14892     14895     14897     14880     14892     14895     14898
     14881     14880     14892     14893     14881     14880     14892     14894
     14881     14880     14892     14895     14882     14880     14892     14893
     14882     14880     14892     14894     14882     14880     14892     14895
     14883     14886     14887     14888     14883     14886     14887     14889
     14884     14883     14886     14887     14885     14883     14886     14887
     14886     14887     14889     14890     14886     14887     14889     14891
     14886     14887     14889     14939     14887     14889     14939     14940
     14887     14889     14939     14941     14887     14889     14939     14942
     14888     14887     14889     14890     14888     14887     14889     14891
     14888     14887     14889     14939     14889     14939     14942     14943
     14889     14939     14942     14944     14889     14939     14942     14945
     14890     14889     14939     14940     14890     14889     14939     14941
     14890     14889     14939     14942     14891     14889     14939     14940
     14891     14889     14939     14941     14891     14889     14939     14942
     14892     14895     14898     14899     14892     14895     14898     14900
     14892     14895     14898     14901     14893     14892     14895     14896
     14893     14892     14895     14897     14893     14892     14895     14898
     14894     14892     14895     14896     14894     14892     14895     14897
     14894     14892     14895     14898     14895     14898     14901     14902
     14895     14898     14901     14903     14895     14898     14901     14904
     14896     14895     14898     14899     14896     14895     14898     14900
     14896     14895     14898     14901     14897     14895     14898     14899
     14897     14895     14898     14900     14897     14895     14898     14901
     14898     14901     14904     14905     14898     14901     14904     14906
     14898     14901     14904     14907     14899     14898     14901     14902
     14899     14898     14901     14903     14899     14898     14901     14904
     14900     14898     14901     14902     14900     14898     14901     14903
     14900     14898     14901     14904     14901     14904     14907     14908
     14901     14904     14907     14909     14901     14904     14907     14910
     14902     14901     14904     14905     14902     14901     14904     14906
     14902     14901     14904     14907     14903     14901     14904     14905
     14903     14901     14904     14906     14903     14901     14904     14907
     14904     14907     14910     14911     14904     14907     14910     14912
     14905     14904     14907     14908     14905     14904     14907     14909
     14905     14904     14907     14910     14906     14904     14907     14908
     14906     14904     14907     14909     14906     14904     14907     14910
     14907     14910     14912     14913     14907     14910     14912     14914
     14908     14907     14910     14911     14908     14907     14910     14912
     14909     14907     14910     14911     14909     14907     14910     14912
     14910     14912     14914     14915     14910     14912     14914     14916
     14910     14912     14914     14917     14911     14910     14912     14913
     14911     14910     14912     14914     14912     14914     14917     14918
     14912     14914     14917     14919     14912     14914     14917     14920
     14913     14912     14914     14915     14913     14912     14914     14916
     14913     14912     14914     14917     14914     14917     14920     14921
     14914     14917     14920     14922     14914     14917     14920     14923
     14915     14914     14917     14918     14915     14914     14917     14919
     14915     14914     14917     14920     14916     14914     14917     14918
     14916     14914     14917     14919     14916     14914     14917     14920
     14917     14920     14923     14924     14917     14920     14923     14925
     14917     14920     14923     14926     14918     14917     14920     14921
     14918     14917     14920     14922     14918     14917     14920     14923
     14919     14917     14920     14921     14919     14917     14920     14922
     14919     14917     14920     14923     14920     14923     14926     14927
     14920     14923     14926     14928     14920     14923     14926     14929
     14921     14920     14923     14924     14921     14920     14923     14925
     14921     14920     14923     14926     14922     14920     14923     14924
     14922     14920     14923     14925     14922     14920     14923     14926
     14923     14926     14929     14930     14923     14926     14929     14931
     14923     14926     14929     14932     14924     14923     14926     14927
     14924     14923     14926     14928     14924     14923     14926     14929
     14925     14923     14926     14927     14925     14923     14926     14928
     14925     14923     14926     14929     14926     14929     14932     14933
     14926     14929     14932     14934     14926     14929     14932     14935
     14927     14926     14929     14930     14927     14926     14929     14931
     14927     14926     14929     14932     14928     14926     14929     14930
     14928     14926     14929     14931     14928     14926     14929     14932
     14929     14932     14935     14936     14929     14932     14935     14937
     14929     14932     14935     14938     14930     14929     14932     14933
     14930     14929     14932     14934     14930     14929     14932     14935
     14931     14929     14932     14933     14931     14929     14932     14934
     14931     14929     14932     14935     14933     14932     14935     14936
     14933     14932     14935     14937     14933     14932     14935     14938
     14934     14932     14935     14936     14934     14932     14935     14937
     14934     14932     14935     14938     14939     14942     14945     14946
     14939     14942     14945     14947     14939     14942     14945     14948
     14940     14939     14942     14943     14940     14939     14942     14944
     14940     14939     14942     14945     14941     14939     14942     14943
     14941     14939     14942     14944     14941     14939     14942     14945
     14942     14945     14948     14949     14942     14945     14948     14950
     14942     14945     14948     14951     14943     14942     14945     14946
     14943     14942     14945     14947     14943     14942     14945     14948
     14944     14942     14945     14946     14944     14942     14945     14947
     14944     14942     14945     14948     14945     14948     14951     14952
     14945     14948     14951     14953     14945     14948     14951     14954
     14946     14945     14948     14949     14946     14945     14948     14950
     14946     14945     14948     14951     14947     14945     14948     14949
     14947     14945     14948     14950     14947     14945     14948     14951
     14948     14951     14954     14955     14948     14951     14954     14956
     14948     14951     14954     14957     14949     14948     14951     14952
     14949     14948     14951     14953     14949     14948     14951     14954
     14950     14948     14951     14952     14950     14948     14951     14953
     14950     14948     14951     14954     14951     14954     14957     14958
     14951     14954     14957     14959     14951     14954     14957     14960
     14952     14951     14954     14955     14952     14951     14954     14956
     14952     14951     14954     14957     14953     14951     14954     14955
     14953     14951     14954     14956     14953     14951     14954     14957
     14954     14957     14960     14961     14954     14957     14960     14962
     14954     14957     14960     14963     14955     14954     14957     14958
     14955     14954     14957     14959     14955     14954     14957     14960
     14956     14954     14957     14958     14956     14954     14957     14959
     14956     14954     14957     14960     14957     14960     14963     14964
     14957     14960     14963     14965     14957     14960     14963     14966
     14958     14957     14960     14961     14958     14957     14960     14962
     14958     14957     14960     14963     14959     14957     14960     14961
     14959     14957     14960     14962     14959     14957     14960     14963
     14960     14963     14966     14967     14960     14963     14966     14968
     14960     14963     14966     14969     14961     14960     14963     14964
     14961     14960     14963     14965     14961     14960     14963     14966
     14962     14960     14963     14964     14962     14960     14963     14965
     14962     14960     14963     14966     14963     14966     14969     14970
     14963     14966     14969     14971     14963     14966     14969     14972
     14964     14963     14966     14967     14964     14963     14966     14968
     14964     14963     14966     14969     14965     14963     14966     14967
     14965     14963     14966     14968     14965     14963     14966     14969
     14966     14969     14972     14973     14966     14969     14972     14974
     14966     14969     14972     14975     14967     14966     14969     14970
     14967     14966     14969     14971     14967     14966     14969     14972
     14968     14966     14969     14970     14968     14966     14969     14971
     14968     14966     14969     14972     14969     14972     14975     14976
     14969     14972     14975     14977     14969     14972     14975     14978
     14970     14969     14972     14973     14970     14969     14972     14974
     14970     14969     14972     14975     14971     14969     14972     14973
     14971     14969     14972     14974     14971     14969     14972     14975
     14972     14975     14978     14979     14972     14975     14978     14980
     14972     14975     14978     14981     14973     14972     14975     14976
     14973     14972     14975     14977     14973     14972     14975     14978
     14974     14972     14975     14976     14974     14972     14975     14977
     14974     14972     14975     14978     14976     14975     14978     14979
     14976     14975     14978     14980     14976     14975     14978     14981
     14977     14975     14978     14979     14977     14975     14978     14980
     14977     14975     14978     14981     14982     14983     14998     14999
     14982     14983     14998     15000     14982     14983     14998     15004
     14983     14982     14986     14987     14983     14982     14986     14988
     14983     14982     14986     14989     14983     14982     14990     14991
     14983     14982     14990     14992     14983     14982     14990     14993
     14983     14982     14994     14995     14983     14982     14994     14996
     14983     14982     14994     14997     14983     14998     15004     15001
     14984     14983     14982     14986     14984     14983     14982     14990
     14984     14983     14982     14994     14984     14983     14998     14999
     14984     14983     14998     15000     14984     14983     14998     15004
     14985     14983     14982     14986     14985     14983     14982     14990
     14985     14983     14982     14994     14985     14983     14998     14999
     14985     14983     14998     15000     14985     14983     14998     15004
     14986     14982     14983     14998     14986     14982     14990     14991
     14986     14982     14990     14992     14986     14982     14990     14993
     14986     14982     14994     14995     14986     14982     14994     14996
     14986     14982     14994     14997     14987     14986     14982     14990
     14987     14986     14982     14994     14988     14986     14982     14990
     14988     14986     14982     14994     14989     14986     14982     14990
     14989     14986     14982     14994     14990     14982     14983     14998
     14990     14982     14994     14995     14990     14982     14994     14996
     14990     14982     14994     14997     14991     14990     14982     14994
     14992     14990     14982     14994     14993     14990     14982     14994
     14994     14982     14983     14998     14998     15004     15001     15002
     14998     15004     15001     15003     14998     15004     15001     15005
     14999     14998     15004     15001     15000     14998     15004     15001
     15001     15005     15006     15007     15001     15005     15006     15008
     15001     15005     15006     15009     15002     15001     15005     15006
     15003     15001     15005     15006     15004     15001     15005     15006
     15005     15006     15009     15010     15005     15006     15009     15011
     15005     15006     15009     15017     15006     15009     15011     15012
     15006     15009     15017     15018     15006     15009     15017     15019
     15006     15009     15017     15020     15007     15006     15009     15010
     15007     15006     15009     15011     15007     15006     15009     15017
     15008     15006     15009     15010     15008     15006     15009     15011
     15008     15006     15009     15017     15009     15011     15012     15013
     15009     15011     15012     15014     15009     15017     15020     15021
     15010     15009     15011     15012     15010     15009     15017     15018
     15010     15009     15017     15019     15010     15009     15017     15020
     15011     15009     15017     15018     15011     15009     15017     15019
     15011     15009     15017     15020     15011     15012     15014     15015
     15011     15012     15014     15016     15011     15012     15014     15026
     15012     15011     15009     15017     15012     15014     15026     15027
     15012     15014     15026     15028     15012     15014     15026     15029
     15013     15012     15014     15015     15013     15012     15014     15016
     15013     15012     15014     15026     15014     15026     15029     15030
     15014     15026     15029     15031     15014     15026     15029     15032
     15015     15014     15026     15027     15015     15014     15026     15028
     15015     15014     15026     15029     15016     15014     15026     15027
     15016     15014     15026     15028     15016     15014     15026     15029
     15017     15020     15021     15022     15017     15020     15021     15023
     15018     15017     15020     15021     15019     15017     15020     15021
     15020     15021     15023     15024     15020     15021     15023     15025
     15020     15021     15023     15073     15021     15023     15073     15074
     15021     15023     15073     15075     15021     15023     15073     15076
     15022     15021     15023     15024     15022     15021     15023     15025
     15022     15021     15023     15073     15023     15073     15076     15077
     15023     15073     15076     15078     15023     15073     15076     15079
     15024     15023     15073     15074     15024     15023     15073     15075
     15024     15023     15073     15076     15025     15023     15073     15074
     15025     15023     15073     15075     15025     15023     15073     15076
     15026     15029     15032     15033     15026     15029     15032     15034
     15026     15029     15032     15035     15027     15026     15029     15030
     15027     15026     15029     15031     15027     15026     15029     15032
     15028     15026     15029     15030     15028     15026     15029     15031
     15028     15026     15029     15032     15029     15032     15035     15036
     15029     15032     15035     15037     15029     15032     15035     15038
     15030     15029     15032     15033     15030     15029     15032     15034
     15030     15029     15032     15035     15031     15029     15032     15033
     15031     15029     15032     15034     15031     15029     15032     15035
     15032     15035     15038     15039     15032     15035     15038     15040
     15032     15035     15038     15041     15033     15032     15035     15036
     15033     15032     15035     15037     15033     15032     15035     15038
     15034     15032     15035     15036     15034     15032     15035     15037
     15034     15032     15035     15038     15035     15038     15041     15042
     15035     15038     15041     15043     15035     15038     15041     15044
     15036     15035     15038     15039     15036     15035     15038     15040
     15036     15035     15038     15041     15037     15035     15038     15039
     15037     15035     15038     15040     15037     15035     15038     15041
     15038     15041     15044     15045     15038     15041     15044     15046
     15039     15038     15041     15042     15039     15038     15041     15043
     15039     15038     15041     15044     15040     15038     15041     15042
     15040     15038     15041     15043     15040     15038     15041     15044
     15041     15044     15046     15047     15041     15044     15046     15048
     15042     15041     15044     15045     15042     15041     15044     15046
     15043     15041     15044     15045     15043     15041     15044     15046
     15044     15046     15048     15049     15044     15046     15048     15050
     15044     15046     15048     15051     15045     15044     15046     15047
     15045     15044     15046     15048     15046     15048     15051     15052
     15046     15048     15051     15053     15046     15048     15051     15054
     15047     15046     15048     15049     15047     15046     15048     15050
     15047     15046     15048     15051     15048     15051     15054     15055
     15048     15051     15054     15056     15048     15051     15054     15057
     15049     15048     15051     15052     15049     15048     15051     15053
     15049     15048     15051     15054     15050     15048     15051     15052
     15050     15048     15051     15053     15050     15048     15051     15054
     15051     15054     15057     15058     15051     15054     15057     15059
     15051     15054     15057     15060     15052     15051     15054     15055
     15052     15051     15054     15056     15052     15051     15054     15057
     15053     15051     15054     15055     15053     15051     15054     15056
     15053     15051     15054     15057     15054     15057     15060     15061
     15054     15057     15060     15062     15054     15057     15060     15063
     15055     15054     15057     15058     15055     15054     15057     15059
     15055     15054     15057     15060     15056     15054     15057     15058
     15056     15054     15057     15059     15056     15054     15057     15060
     15057     15060     15063     15064     15057     15060     15063     15065
     15057     15060     15063     15066     15058     15057     15060     15061
     15058     15057     15060     15062     15058     15057     15060     15063
     15059     15057     15060     15061     15059     15057     15060     15062
     15059     15057     15060     15063     15060     15063     15066     15067
     15060     15063     15066     15068     15060     15063     15066     15069
     15061     15060     15063     15064     15061     15060     15063     15065
     15061     15060     15063     15066     15062     15060     15063     15064
     15062     15060     15063     15065     15062     15060     15063     15066
     15063     15066     15069     15070     15063     15066     15069     15071
     15063     15066     15069     15072     15064     15063     15066     15067
     15064     15063     15066     15068     15064     15063     15066     15069
     15065     15063     15066     15067     15065     15063     15066     15068
     15065     15063     15066     15069     15067     15066     15069     15070
     15067     15066     15069     15071     15067     15066     15069     15072
     15068     15066     15069     15070     15068     15066     15069     15071
     15068     15066     15069     15072     15073     15076     15079     15080
     15073     15076     15079     15081     15073     15076     15079     15082
     15074     15073     15076     15077     15074     15073     15076     15078
     15074     15073     15076     15079     15075     15073     15076     15077
     15075     15073     15076     15078     15075     15073     15076     15079
     15076     15079     15082     15083     15076     15079     15082     15084
     15076     15079     15082     15085     15077     15076     15079     15080
     15077     15076     15079     15081     15077     15076     15079     15082
     15078     15076     15079     15080     15078     15076     15079     15081
     15078     15076     15079     15082     15079     15082     15085     15086
     15079     15082     15085     15087     15079     15082     15085     15088
     15080     15079     15082     15083     15080     15079     15082     15084
     15080     15079     15082     15085     15081     15079     15082     15083
     15081     15079     15082     15084     15081     15079     15082     15085
     15082     15085     15088     15089     15082     15085     15088     15090
     15082     15085     15088     15091     15083     15082     15085     15086
     15083     15082     15085     15087     15083     15082     15085     15088
     15084     15082     15085     15086     15084     15082     15085     15087
     15084     15082     15085     15088     15085     15088     15091     15092
     15085     15088     15091     15093     15085     15088     15091     15094
     15086     15085     15088     15089     15086     15085     15088     15090
     15086     15085     15088     15091     15087     15085     15088     15089
     15087     15085     15088     15090     15087     15085     15088     15091
     15088     15091     15094     15095     15088     15091     15094     15096
     15088     15091     15094     15097     15089     15088     15091     15092
     15089     15088     15091     15093     15089     15088     15091     15094
     15090     15088     15091     15092     15090     15088     15091     15093
     15090     15088     15091     15094     15091     15094     15097     15098
     15091     15094     15097     15099     15091     15094     15097     15100
     15092     15091     15094     15095     15092     15091     15094     15096
     15092     15091     15094     15097     15093     15091     15094     15095
     15093     15091     15094     15096     15093     15091     15094     15097
     15094     15097     15100     15101     15094     15097     15100     15102
     15094     15097     15100     15103     15095     15094     15097     15098
     15095     15094     15097     15099     15095     15094     15097     15100
     15096     15094     15097     15098     15096     15094     15097     15099
     15096     15094     15097     15100     15097     15100     15103     15104
     15097     15100     15103     15105     15097     15100     15103     15106
     15098     15097     15100     15101     15098     15097     15100     15102
     15098     15097     15100     15103     15099     15097     15100     15101
     15099     15097     15100     15102     15099     15097     15100     15103
     15100     15103     15106     15107     15100     15103     15106     15108
     15100     15103     15106     15109     15101     15100     15103     15104
     15101     15100     15103     15105     15101     15100     15103     15106
     15102     15100     15103     15104     15102     15100     15103     15105
     15102     15100     15103     15106     15103     15106     15109     15110
     15103     15106     15109     15111     15103     15106     15109     15112
     15104     15103     15106     15107     15104     15103     15106     15108
     15104     15103     15106     15109     15105     15103     15106     15107
     15105     15103     15106     15108     15105     15103     15106     15109
     15106     15109     15112     15113     15106     15109     15112     15114
     15106     15109     15112     15115     15107     15106     15109     15110
     15107     15106     15109     15111     15107     15106     15109     15112
     15108     15106     15109     15110     15108     15106     15109     15111
     15108     15106     15109     15112     15110     15109     15112     15113
     15110     15109     15112     15114     15110     15109     15112     15115
     15111     15109     15112     15113     15111     15109     15112     15114
     15111     15109     15112     15115     15116     15117     15132     15133
     15116     15117     15132     15134     15116     15117     15132     15138
     15117     15116     15120     15121     15117     15116     15120     15122
     15117     15116     15120     15123     15117     15116     15124     15125
     15117     15116     15124     15126     15117     15116     15124     15127
     15117     15116     15128     15129     15117     15116     15128     15130
     15117     15116     15128     15131     15117     15132     15138     15135
     15118     15117     15116     15120     15118     15117     15116     15124
     15118     15117     15116     15128     15118     15117     15132     15133
     15118     15117     15132     15134     15118     15117     15132     15138
     15119     15117     15116     15120     15119     15117     15116     15124
     15119     15117     15116     15128     15119     15117     15132     15133
     15119     15117     15132     15134     15119     15117     15132     15138
     15120     15116     15117     15132     15120     15116     15124     15125
     15120     15116     15124     15126     15120     15116     15124     15127
     15120     15116     15128     15129     15120     15116     15128     15130
     15120     15116     15128     15131     15121     15120     15116     15124
     15121     15120     15116     15128     15122     15120     15116     15124
     15122     15120     15116     15128     15123     15120     15116     15124
     15123     15120     15116     15128     15124     15116     15117     15132
     15124     15116     15128     15129     15124     15116     15128     15130
     15124     15116     15128     15131     15125     15124     15116     15128
     15126     15124     15116     15128     15127     15124     15116     15128
     15128     15116     15117     15132     15132     15138     15135     15136
     15132     15138     15135     15137     15132     15138     15135     15139
     15133     15132     15138     15135     15134     15132     15138     15135
     15135     15139     15140     15141     15135     15139     15140     15142
     15135     15139     15140     15143     15136     15135     15139     15140
     15137     15135     15139     15140     15138     15135     15139     15140
     15139     15140     15143     15144     15139     15140     15143     15145
     15139     15140     15143     15151     15140     15143     15145     15146
     15140     15143     15151     15152     15140     15143     15151     15153
     15140     15143     15151     15154     15141     15140     15143     15144
     15141     15140     15143     15145     15141     15140     15143     15151
     15142     15140     15143     15144     15142     15140     15143     15145
     15142     15140     15143     15151     15143     15145     15146     15147
     15143     15145     15146     15148     15143     15151     15154     15155
     15144     15143     15145     15146     15144     15143     15151     15152
     15144     15143     15151     15153     15144     15143     15151     15154
     15145     15143     15151     15152     15145     15143     15151     15153
     15145     15143     15151     15154     15145     15146     15148     15149
     15145     15146     15148     15150     15145     15146     15148     15160
     15146     15145     15143     15151     15146     15148     15160     15161
     15146     15148     15160     15162     15146     15148     15160     15163
     15147     15146     15148     15149     15147     15146     15148     15150
     15147     15146     15148     15160     15148     15160     15163     15164
     15148     15160     15163     15165     15148     15160     15163     15166
     15149     15148     15160     15161     15149     15148     15160     15162
     15149     15148     15160     15163     15150     15148     15160     15161
     15150     15148     15160     15162     15150     15148     15160     15163
     15151     15154     15155     15156     15151     15154     15155     15157
     15152     15151     15154     15155     15153     15151     15154     15155
     15154     15155     15157     15158     15154     15155     15157     15159
     15154     15155     15157     15207     15155     15157     15207     15208
     15155     15157     15207     15209     15155     15157     15207     15210
     15156     15155     15157     15158     15156     15155     15157     15159
     15156     15155     15157     15207     15157     15207     15210     15211
     15157     15207     15210     15212     15157     15207     15210     15213
     15158     15157     15207     15208     15158     15157     15207     15209
     15158     15157     15207     15210     15159     15157     15207     15208
     15159     15157     15207     15209     15159     15157     15207     15210
     15160     15163     15166     15167     15160     15163     15166     15168
     15160     15163     15166     15169     15161     15160     15163     15164
     15161     15160     15163     15165     15161     15160     15163     15166
     15162     15160     15163     15164     15162     15160     15163     15165
     15162     15160     15163     15166     15163     15166     15169     15170
     15163     15166     15169     15171     15163     15166     15169     15172
     15164     15163     15166     15167     15164     15163     15166     15168
     15164     15163     15166     15169     15165     15163     15166     15167
     15165     15163     15166     15168     15165     15163     15166     15169
     15166     15169     15172     15173     15166     15169     15172     15174
     15166     15169     15172     15175     15167     15166     15169     15170
     15167     15166     15169     15171     15167     15166     15169     15172
     15168     15166     15169     15170     15168     15166     15169     15171
     15168     15166     15169     15172     15169     15172     15175     15176
     15169     15172     15175     15177     15169     15172     15175     15178
     15170     15169     15172     15173     15170     15169     15172     15174
     15170     15169     15172     15175     15171     15169     15172     15173
     15171     15169     15172     15174     15171     15169     15172     15175
     15172     15175     15178     15179     15172     15175     15178     15180
     15173     15172     15175     15176     15173     15172     15175     15177
     15173     15172     15175     15178     15174     15172     15175     15176
     15174     15172     15175     15177     15174     15172     15175     15178
     15175     15178     15180     15181     15175     15178     15180     15182
     15176     15175     15178     15179     15176     15175     15178     15180
     15177     15175     15178     15179     15177     15175     15178     15180
     15178     15180     15182     15183     15178     15180     15182     15184
     15178     15180     15182     15185     15179     15178     15180     15181
     15179     15178     15180     15182     15180     15182     15185     15186
     15180     15182     15185     15187     15180     15182     15185     15188
     15181     15180     15182     15183     15181     15180     15182     15184
     15181     15180     15182     15185     15182     15185     15188     15189
     15182     15185     15188     15190     15182     15185     15188     15191
     15183     15182     15185     15186     15183     15182     15185     15187
     15183     15182     15185     15188     15184     15182     15185     15186
     15184     15182     15185     15187     15184     15182     15185     15188
     15185     15188     15191     15192     15185     15188     15191     15193
     15185     15188     15191     15194     15186     15185     15188     15189
     15186     15185     15188     15190     15186     15185     15188     15191
     15187     15185     15188     15189     15187     15185     15188     15190
     15187     15185     15188     15191     15188     15191     15194     15195
     15188     15191     15194     15196     15188     15191     15194     15197
     15189     15188     15191     15192     15189     15188     15191     15193
     15189     15188     15191     15194     15190     15188     15191     15192
     15190     15188     15191     15193     15190     15188     15191     15194
     15191     15194     15197     15198     15191     15194     15197     15199
     15191     15194     15197     15200     15192     15191     15194     15195
     15192     15191     15194     15196     15192     15191     15194     15197
     15193     15191     15194     15195     15193     15191     15194     15196
     15193     15191     15194     15197     15194     15197     15200     15201
     15194     15197     15200     15202     15194     15197     15200     15203
     15195     15194     15197     15198     15195     15194     15197     15199
     15195     15194     15197     15200     15196     15194     15197     15198
     15196     15194     15197     15199     15196     15194     15197     15200
     15197     15200     15203     15204     15197     15200     15203     15205
     15197     15200     15203     15206     15198     15197     15200     15201
     15198     15197     15200     15202     15198     15197     15200     15203
     15199     15197     15200     15201     15199     15197     15200     15202
     15199     15197     15200     15203     15201     15200     15203     15204
     15201     15200     15203     15205     15201     15200     15203     15206
     15202     15200     15203     15204     15202     15200     15203     15205
     15202     15200     15203     15206     15207     15210     15213     15214
     15207     15210     15213     15215     15207     15210     15213     15216
     15208     15207     15210     15211     15208     15207     15210     15212
     15208     15207     15210     15213     15209     15207     15210     15211
     15209     15207     15210     15212     15209     15207     15210     15213
     15210     15213     15216     15217     15210     15213     15216     15218
     15210     15213     15216     15219     15211     15210     15213     15214
     15211     15210     15213     15215     15211     15210     15213     15216
     15212     15210     15213     15214     15212     15210     15213     15215
     15212     15210     15213     15216     15213     15216     15219     15220
     15213     15216     15219     15221     15213     15216     15219     15222
     15214     15213     15216     15217     15214     15213     15216     15218
     15214     15213     15216     15219     15215     15213     15216     15217
     15215     15213     15216     15218     15215     15213     15216     15219
     15216     15219     15222     15223     15216     15219     15222     15224
     15216     15219     15222     15225     15217     15216     15219     15220
     15217     15216     15219     15221     15217     15216     15219     15222
     15218     15216     15219     15220     15218     15216     15219     15221
     15218     15216     15219     15222     15219     15222     15225     15226
     15219     15222     15225     15227     15219     15222     15225     15228
     15220     15219     15222     15223     15220     15219     15222     15224
     15220     15219     15222     15225     15221     15219     15222     15223
     15221     15219     15222     15224     15221     15219     15222     15225
     15222     15225     15228     15229     15222     15225     15228     15230
     15222     15225     15228     15231     15223     15222     15225     15226
     15223     15222     15225     15227     15223     15222     15225     15228
     15224     15222     15225     15226     15224     15222     15225     15227
     15224     15222     15225     15228     15225     15228     15231     15232
     15225     15228     15231     15233     15225     15228     15231     15234
     15226     15225     15228     15229     15226     15225     15228     15230
     15226     15225     15228     15231     15227     15225     15228     15229
     15227     15225     15228     15230     15227     15225     15228     15231
     15228     15231     15234     15235     15228     15231     15234     15236
     15228     15231     15234     15237     15229     15228     15231     15232
     15229     15228     15231     15233     15229     15228     15231     15234
     15230     15228     15231     15232     15230     15228     15231     15233
     15230     15228     15231     15234     15231     15234     15237     15238
     15231     15234     15237     15239     15231     15234     15237     15240
     15232     15231     15234     15235     15232     15231     15234     15236
     15232     15231     15234     15237     15233     15231     15234     15235
     15233     15231     15234     15236     15233     15231     15234     15237
     15234     15237     15240     15241     15234     15237     15240     15242
     15234     15237     15240     15243     15235     15234     15237     15238
     15235     15234     15237     15239     15235     15234     15237     15240
     15236     15234     15237     15238     15236     15234     15237     15239
     15236     15234     15237     15240     15237     15240     15243     15244
     15237     15240     15243     15245     15237     15240     15243     15246
     15238     15237     15240     15241     15238     15237     15240     15242
     15238     15237     15240     15243     15239     15237     15240     15241
     15239     15237     15240     15242     15239     15237     15240     15243
     15240     15243     15246     15247     15240     15243     15246     15248
     15240     15243     15246     15249     15241     15240     15243     15244
     15241     15240     15243     15245     15241     15240     15243     15246
     15242     15240     15243     15244     15242     15240     15243     15245
     15242     15240     15243     15246     15244     15243     15246     15247
     15244     15243     15246     15248     15244     15243     15246     15249
     15245     15243     15246     15247     15245     15243     15246     15248
     15245     15243     15246     15249     15250     15251     15266     15267
     15250     15251     15266     15268     15250     15251     15266     15272
     15251     15250     15254     15255     15251     15250     15254     15256
     15251     15250     15254     15257     15251     15250     15258     15259
     15251     15250     15258     15260     15251     15250     15258     15261
     15251     15250     15262     15263     15251     15250     15262     15264
     15251     15250     15262     15265     15251     15266     15272     15269
     15252     15251     15250     15254     15252     15251     15250     15258
     15252     15251     15250     15262     15252     15251     15266     15267
     15252     15251     15266     15268     15252     15251     15266     15272
     15253     15251     15250     15254     15253     15251     15250     15258
     15253     15251     15250     15262     15253     15251     15266     15267
     15253     15251     15266     15268     15253     15251     15266     15272
     15254     15250     15251     15266     15254     15250     15258     15259
     15254     15250     15258     15260     15254     15250     15258     15261
     15254     15250     15262     15263     15254     15250     15262     15264
     15254     15250     15262     15265     15255     15254     15250     15258
     15255     15254     15250     15262     15256     15254     15250     15258
     15256     15254     15250     15262     15257     15254     15250     15258
     15257     15254     15250     15262     15258     15250     15251     15266
     15258     15250     15262     15263     15258     15250     15262     15264
     15258     15250     15262     15265     15259     15258     15250     15262
     15260     15258     15250     15262     15261     15258     15250     15262
     15262     15250     15251     15266     15266     15272     15269     15270
     15266     15272     15269     15271     15266     15272     15269     15273
     15267     15266     15272     15269     15268     15266     15272     15269
     15269     15273     15274     15275     15269     15273     15274     15276
     15269     15273     15274     15277     15270     15269     15273     15274
     15271     15269     15273     15274     15272     15269     15273     15274
     15273     15274     15277     15278     15273     15274     15277     15279
     15273     15274     15277     15285     15274     15277     15279     15280
     15274     15277     15285     15286     15274     15277     15285     15287
     15274     15277     15285     15288     15275     15274     15277     15278
     15275     15274     15277     15279     15275     15274     15277     15285
     15276     15274     15277     15278     15276     15274     15277     15279
     15276     15274     15277     15285     15277     15279     15280     15281
     15277     15279     15280     15282     15277     15285     15288     15289
     15278     15277     15279     15280     15278     15277     15285     15286
     15278     15277     15285     15287     15278     15277     15285     15288
     15279     15277     15285     15286     15279     15277     15285     15287
     15279     15277     15285     15288     15279     15280     15282     15283
     15279     15280     15282     15284     15279     15280     15282     15294
     15280     15279     15277     15285     15280     15282     15294     15295
     15280     15282     15294     15296     15280     15282     15294     15297
     15281     15280     15282     15283     15281     15280     15282     15284
     15281     15280     15282     15294     15282     15294     15297     15298
     15282     15294     15297     15299     15282     15294     15297     15300
     15283     15282     15294     15295     15283     15282     15294     15296
     15283     15282     15294     15297     15284     15282     15294     15295
     15284     15282     15294     15296     15284     15282     15294     15297
     15285     15288     15289     15290     15285     15288     15289     15291
     15286     15285     15288     15289     15287     15285     15288     15289
     15288     15289     15291     15292     15288     15289     15291     15293
     15288     15289     15291     15341     15289     15291     15341     15342
     15289     15291     15341     15343     15289     15291     15341     15344
     15290     15289     15291     15292     15290     15289     15291     15293
     15290     15289     15291     15341     15291     15341     15344     15345
     15291     15341     15344     15346     15291     15341     15344     15347
     15292     15291     15341     15342     15292     15291     15341     15343
     15292     15291     15341     15344     15293     15291     15341     15342
     15293     15291     15341     15343     15293     15291     15341     15344
     15294     15297     15300     15301     15294     15297     15300     15302
     15294     15297     15300     15303     15295     15294     15297     15298
     15295     15294     15297     15299     15295     15294     15297     15300
     15296     15294     15297     15298     15296     15294     15297     15299
     15296     15294     15297     15300     15297     15300     15303     15304
     15297     15300     15303     15305     15297     15300     15303     15306
     15298     15297     15300     15301     15298     15297     15300     15302
     15298     15297     15300     15303     15299     15297     15300     15301
     15299     15297     15300     15302     15299     15297     15300     15303
     15300     15303     15306     15307     15300     15303     15306     15308
     15300     15303     15306     15309     15301     15300     15303     15304
     15301     15300     15303     15305     15301     15300     15303     15306
     15302     15300     15303     15304     15302     15300     15303     15305
     15302     15300     15303     15306     15303     15306     15309     15310
     15303     15306     15309     15311     15303     15306     15309     15312
     15304     15303     15306     15307     15304     15303     15306     15308
     15304     15303     15306     15309     15305     15303     15306     15307
     15305     15303     15306     15308     15305     15303     15306     15309
     15306     15309     15312     15313     15306     15309     15312     15314
     15307     15306     15309     15310     15307     15306     15309     15311
     15307     15306     15309     15312     15308     15306     15309     15310
     15308     15306     15309     15311     15308     15306     15309     15312
     15309     15312     15314     15315     15309     15312     15314     15316
     15310     15309     15312     15313     15310     15309     15312     15314
     15311     15309     15312     15313     15311     15309     15312     15314
     15312     15314     15316     15317     15312     15314     15316     15318
     15312     15314     15316     15319     15313     15312     15314     15315
     15313     15312     15314     15316     15314     15316     15319     15320
     15314     15316     15319     15321     15314     15316     15319     15322
     15315     15314     15316     15317     15315     15314     15316     15318
     15315     15314     15316     15319     15316     15319     15322     15323
     15316     15319     15322     15324     15316     15319     15322     15325
     15317     15316     15319     15320     15317     15316     15319     15321
     15317     15316     15319     15322     15318     15316     15319     15320
     15318     15316     15319     15321     15318     15316     15319     15322
     15319     15322     15325     15326     15319     15322     15325     15327
     15319     15322     15325     15328     15320     15319     15322     15323
     15320     15319     15322     15324     15320     15319     15322     15325
     15321     15319     15322     15323     15321     15319     15322     15324
     15321     15319     15322     15325     15322     15325     15328     15329
     15322     15325     15328     15330     15322     15325     15328     15331
     15323     15322     15325     15326     15323     15322     15325     15327
     15323     15322     15325     15328     15324     15322     15325     15326
     15324     15322     15325     15327     15324     15322     15325     15328
     15325     15328     15331     15332     15325     15328     15331     15333
     15325     15328     15331     15334     15326     15325     15328     15329
     15326     15325     15328     15330     15326     15325     15328     15331
     15327     15325     15328     15329     15327     15325     15328     15330
     15327     15325     15328     15331     15328     15331     15334     15335
     15328     15331     15334     15336     15328     15331     15334     15337
     15329     15328     15331     15332     15329     15328     15331     15333
     15329     15328     15331     15334     15330     15328     15331     15332
     15330     15328     15331     15333     15330     15328     15331     15334
     15331     15334     15337     15338     15331     15334     15337     15339
     15331     15334     15337     15340     15332     15331     15334     15335
     15332     15331     15334     15336     15332     15331     15334     15337
     15333     15331     15334     15335     15333     15331     15334     15336
     15333     15331     15334     15337     15335     15334     15337     15338
     15335     15334     15337     15339     15335     15334     15337     15340
     15336     15334     15337     15338     15336     15334     15337     15339
     15336     15334     15337     15340     15341     15344     15347     15348
     15341     15344     15347     15349     15341     15344     15347     15350
     15342     15341     15344     15345     15342     15341     15344     15346
     15342     15341     15344     15347     15343     15341     15344     15345
     15343     15341     15344     15346     15343     15341     15344     15347
     15344     15347     15350     15351     15344     15347     15350     15352
     15344     15347     15350     15353     15345     15344     15347     15348
     15345     15344     15347     15349     15345     15344     15347     15350
     15346     15344     15347     15348     15346     15344     15347     15349
     15346     15344     15347     15350     15347     15350     15353     15354
     15347     15350     15353     15355     15347     15350     15353     15356
     15348     15347     15350     15351     15348     15347     15350     15352
     15348     15347     15350     15353     15349     15347     15350     15351
     15349     15347     15350     15352     15349     15347     15350     15353
     15350     15353     15356     15357     15350     15353     15356     15358
     15350     15353     15356     15359     15351     15350     15353     15354
     15351     15350     15353     15355     15351     15350     15353     15356
     15352     15350     15353     15354     15352     15350     15353     15355
     15352     15350     15353     15356     15353     15356     15359     15360
     15353     15356     15359     15361     15353     15356     15359     15362
     15354     15353     15356     15357     15354     15353     15356     15358
     15354     15353     15356     15359     15355     15353     15356     15357
     15355     15353     15356     15358     15355     15353     15356     15359
     15356     15359     15362     15363     15356     15359     15362     15364
     15356     15359     15362     15365     15357     15356     15359     15360
     15357     15356     15359     15361     15357     15356     15359     15362
     15358     15356     15359     15360     15358     15356     15359     15361
     15358     15356     15359     15362     15359     15362     15365     15366
     15359     15362     15365     15367     15359     15362     15365     15368
     15360     15359     15362     15363     15360     15359     15362     15364
     15360     15359     15362     15365     15361     15359     15362     15363
     15361     15359     15362     15364     15361     15359     15362     15365
     15362     15365     15368     15369     15362     15365     15368     15370
     15362     15365     15368     15371     15363     15362     15365     15366
     15363     15362     15365     15367     15363     15362     15365     15368
     15364     15362     15365     15366     15364     15362     15365     15367
     15364     15362     15365     15368     15365     15368     15371     15372
     15365     15368     15371     15373     15365     15368     15371     15374
     15366     15365     15368     15369     15366     15365     15368     15370
     15366     15365     15368     15371     15367     15365     15368     15369
     15367     15365     15368     15370     15367     15365     15368     15371
     15368     15371     15374     15375     15368     15371     15374     15376
     15368     15371     15374     15377     15369     15368     15371     15372
     15369     15368     15371     15373     15369     15368     15371     15374
     15370     15368     15371     15372     15370     15368     15371     15373
     15370     15368     15371     15374     15371     15374     15377     15378
     15371     15374     15377     15379     15371     15374     15377     15380
     15372     15371     15374     15375     15372     15371     15374     15376
     15372     15371     15374     15377     15373     15371     15374     15375
     15373     15371     15374     15376     15373     15371     15374     15377
     15374     15377     15380     15381     15374     15377     15380     15382
     15374     15377     15380     15383     15375     15374     15377     15378
     15375     15374     15377     15379     15375     15374     15377     15380
     15376     15374     15377     15378     15376     15374     15377     15379
     15376     15374     15377     15380     15378     15377     15380     15381
     15378     15377     15380     15382     15378     15377     15380     15383
     15379     15377     15380     15381     15379     15377     15380     15382
     15379     15377     15380     15383     15384     15385     15400     15401
     15384     15385     15400     15402     15384     15385     15400     15406
     15385     15384     15388     15389     15385     15384     15388     15390
     15385     15384     15388     15391     15385     15384     15392     15393
     15385     15384     15392     15394     15385     15384     15392     15395
     15385     15384     15396     15397     15385     15384     15396     15398
     15385     15384     15396     15399     15385     15400     15406     15403
     15386     15385     15384     15388     15386     15385     15384     15392
     15386     15385     15384     15396     15386     15385     15400     15401
     15386     15385     15400     15402     15386     15385     15400     15406
     15387     15385     15384     15388     15387     15385     15384     15392
     15387     15385     15384     15396     15387     15385     15400     15401
     15387     15385     15400     15402     15387     15385     15400     15406
     15388     15384     15385     15400     15388     15384     15392     15393
     15388     15384     15392     15394     15388     15384     15392     15395
     15388     15384     15396     15397     15388     15384     15396     15398
     15388     15384     15396     15399     15389     15388     15384     15392
     15389     15388     15384     15396     15390     15388     15384     15392
     15390     15388     15384     15396     15391     15388     15384     15392
     15391     15388     15384     15396     15392     15384     15385     15400
     15392     15384     15396     15397     15392     15384     15396     15398
     15392     15384     15396     15399     15393     15392     15384     15396
     15394     15392     15384     15396     15395     15392     15384     15396
     15396     15384     15385     15400     15400     15406     15403     15404
     15400     15406     15403     15405     15400     15406     15403     15407
     15401     15400     15406     15403     15402     15400     15406     15403
     15403     15407     15408     15409     15403     15407     15408     15410
     15403     15407     15408     15411     15404     15403     15407     15408
     15405     15403     15407     15408     15406     15403     15407     15408
     15407     15408     15411     15412     15407     15408     15411     15413
     15407     15408     15411     15419     15408     15411     15413     15414
     15408     15411     15419     15420     15408     15411     15419     15421
     15408     15411     15419     15422     15409     15408     15411     15412
     15409     15408     15411     15413     15409     15408     15411     15419
     15410     15408     15411     15412     15410     15408     15411     15413
     15410     15408     15411     15419     15411     15413     15414     15415
     15411     15413     15414     15416     15411     15419     15422     15423
     15412     15411     15413     15414     15412     15411     15419     15420
     15412     15411     15419     15421     15412     15411     15419     15422
     15413     15411     15419     15420     15413     15411     15419     15421
     15413     15411     15419     15422     15413     15414     15416     15417
     15413     15414     15416     15418     15413     15414     15416     15428
     15414     15413     15411     15419     15414     15416     15428     15429
     15414     15416     15428     15430     15414     15416     15428     15431
     15415     15414     15416     15417     15415     15414     15416     15418
     15415     15414     15416     15428     15416     15428     15431     15432
     15416     15428     15431     15433     15416     15428     15431     15434
     15417     15416     15428     15429     15417     15416     15428     15430
     15417     15416     15428     15431     15418     15416     15428     15429
     15418     15416     15428     15430     15418     15416     15428     15431
     15419     15422     15423     15424     15419     15422     15423     15425
     15420     15419     15422     15423     15421     15419     15422     15423
     15422     15423     15425     15426     15422     15423     15425     15427
     15422     15423     15425     15475     15423     15425     15475     15476
     15423     15425     15475     15477     15423     15425     15475     15478
     15424     15423     15425     15426     15424     15423     15425     15427
     15424     15423     15425     15475     15425     15475     15478     15479
     15425     15475     15478     15480     15425     15475     15478     15481
     15426     15425     15475     15476     15426     15425     15475     15477
     15426     15425     15475     15478     15427     15425     15475     15476
     15427     15425     15475     15477     15427     15425     15475     15478
     15428     15431     15434     15435     15428     15431     15434     15436
     15428     15431     15434     15437     15429     15428     15431     15432
     15429     15428     15431     15433     15429     15428     15431     15434
     15430     15428     15431     15432     15430     15428     15431     15433
     15430     15428     15431     15434     15431     15434     15437     15438
     15431     15434     15437     15439     15431     15434     15437     15440
     15432     15431     15434     15435     15432     15431     15434     15436
     15432     15431     15434     15437     15433     15431     15434     15435
     15433     15431     15434     15436     15433     15431     15434     15437
     15434     15437     15440     15441     15434     15437     15440     15442
     15434     15437     15440     15443     15435     15434     15437     15438
     15435     15434     15437     15439     15435     15434     15437     15440
     15436     15434     15437     15438     15436     15434     15437     15439
     15436     15434     15437     15440     15437     15440     15443     15444
     15437     15440     15443     15445     15437     15440     15443     15446
     15438     15437     15440     15441     15438     15437     15440     15442
     15438     15437     15440     15443     15439     15437     15440     15441
     15439     15437     15440     15442     15439     15437     15440     15443
     15440     15443     15446     15447     15440     15443     15446     15448
     15441     15440     15443     15444     15441     15440     15443     15445
     15441     15440     15443     15446     15442     15440     15443     15444
     15442     15440     15443     15445     15442     15440     15443     15446
     15443     15446     15448     15449     15443     15446     15448     15450
     15444     15443     15446     15447     15444     15443     15446     15448
     15445     15443     15446     15447     15445     15443     15446     15448
     15446     15448     15450     15451     15446     15448     15450     15452
     15446     15448     15450     15453     15447     15446     15448     15449
     15447     15446     15448     15450     15448     15450     15453     15454
     15448     15450     15453     15455     15448     15450     15453     15456
     15449     15448     15450     15451     15449     15448     15450     15452
     15449     15448     15450     15453     15450     15453     15456     15457
     15450     15453     15456     15458     15450     15453     15456     15459
     15451     15450     15453     15454     15451     15450     15453     15455
     15451     15450     15453     15456     15452     15450     15453     15454
     15452     15450     15453     15455     15452     15450     15453     15456
     15453     15456     15459     15460     15453     15456     15459     15461
     15453     15456     15459     15462     15454     15453     15456     15457
     15454     15453     15456     15458     15454     15453     15456     15459
     15455     15453     15456     15457     15455     15453     15456     15458
     15455     15453     15456     15459     15456     15459     15462     15463
     15456     15459     15462     15464     15456     15459     15462     15465
     15457     15456     15459     15460     15457     15456     15459     15461
     15457     15456     15459     15462     15458     15456     15459     15460
     15458     15456     15459     15461     15458     15456     15459     15462
     15459     15462     15465     15466     15459     15462     15465     15467
     15459     15462     15465     15468     15460     15459     15462     15463
     15460     15459     15462     15464     15460     15459     15462     15465
     15461     15459     15462     15463     15461     15459     15462     15464
     15461     15459     15462     15465     15462     15465     15468     15469
     15462     15465     15468     15470     15462     15465     15468     15471
     15463     15462     15465     15466     15463     15462     15465     15467
     15463     15462     15465     15468     15464     15462     15465     15466
     15464     15462     15465     15467     15464     15462     15465     15468
     15465     15468     15471     15472     15465     15468     15471     15473
     15465     15468     15471     15474     15466     15465     15468     15469
     15466     15465     15468     15470     15466     15465     15468     15471
     15467     15465     15468     15469     15467     15465     15468     15470
     15467     15465     15468     15471     15469     15468     15471     15472
     15469     15468     15471     15473     15469     15468     15471     15474
     15470     15468     15471     15472     15470     15468     15471     15473
     15470     15468     15471     15474     15475     15478     15481     15482
     15475     15478     15481     15483     15475     15478     15481     15484
     15476     15475     15478     15479     15476     15475     15478     15480
     15476     15475     15478     15481     15477     15475     15478     15479
     15477     15475     15478     15480     15477     15475     15478     15481
     15478     15481     15484     15485     15478     15481     15484     15486
     15478     15481     15484     15487     15479     15478     15481     15482
     15479     15478     15481     15483     15479     15478     15481     15484
     15480     15478     15481     15482     15480     15478     15481     15483
     15480     15478     15481     15484     15481     15484     15487     15488
     15481     15484     15487     15489     15481     15484     15487     15490
     15482     15481     15484     15485     15482     15481     15484     15486
     15482     15481     15484     15487     15483     15481     15484     15485
     15483     15481     15484     15486     15483     15481     15484     15487
     15484     15487     15490     15491     15484     15487     15490     15492
     15484     15487     15490     15493     15485     15484     15487     15488
     15485     15484     15487     15489     15485     15484     15487     15490
     15486     15484     15487     15488     15486     15484     15487     15489
     15486     15484     15487     15490     15487     15490     15493     15494
     15487     15490     15493     15495     15487     15490     15493     15496
     15488     15487     15490     15491     15488     15487     15490     15492
     15488     15487     15490     15493     15489     15487     15490     15491
     15489     15487     15490     15492     15489     15487     15490     15493
     15490     15493     15496     15497     15490     15493     15496     15498
     15490     15493     15496     15499     15491     15490     15493     15494
     15491     15490     15493     15495     15491     15490     15493     15496
     15492     15490     15493     15494     15492     15490     15493     15495
     15492     15490     15493     15496     15493     15496     15499     15500
     15493     15496     15499     15501     15493     15496     15499     15502
     15494     15493     15496     15497     15494     15493     15496     15498
     15494     15493     15496     15499     15495     15493     15496     15497
     15495     15493     15496     15498     15495     15493     15496     15499
     15496     15499     15502     15503     15496     15499     15502     15504
     15496     15499     15502     15505     15497     15496     15499     15500
     15497     15496     15499     15501     15497     15496     15499     15502
     15498     15496     15499     15500     15498     15496     15499     15501
     15498     15496     15499     15502     15499     15502     15505     15506
     15499     15502     15505     15507     15499     15502     15505     15508
     15500     15499     15502     15503     15500     15499     15502     15504
     15500     15499     15502     15505     15501     15499     15502     15503
     15501     15499     15502     15504     15501     15499     15502     15505
     15502     15505     15508     15509     15502     15505     15508     15510
     15502     15505     15508     15511     15503     15502     15505     15506
     15503     15502     15505     15507     15503     15502     15505     15508
     15504     15502     15505     15506     15504     15502     15505     15507
     15504     15502     15505     15508     15505     15508     15511     15512
     15505     15508     15511     15513     15505     15508     15511     15514
     15506     15505     15508     15509     15506     15505     15508     15510
     15506     15505     15508     15511     15507     15505     15508     15509
     15507     15505     15508     15510     15507     15505     15508     15511
     15508     15511     15514     15515     15508     15511     15514     15516
     15508     15511     15514     15517     15509     15508     15511     15512
     15509     15508     15511     15513     15509     15508     15511     15514
     15510     15508     15511     15512     15510     15508     15511     15513
     15510     15508     15511     15514     15512     15511     15514     15515
     15512     15511     15514     15516     15512     15511     15514     15517
     15513     15511     15514     15515     15513     15511     15514     15516
     15513     15511     15514     15517     15518     15519     15534     15535
     15518     15519     15534     15536     15518     15519     15534     15540
     15519     15518     15522     15523     15519     15518     15522     15524
     15519     15518     15522     15525     15519     15518     15526     15527
     15519     15518     15526     15528     15519     15518     15526     15529
     15519     15518     15530     15531     15519     15518     15530     15532
     15519     15518     15530     15533     15519     15534     15540     15537
     15520     15519     15518     15522     15520     15519     15518     15526
     15520     15519     15518     15530     15520     15519     15534     15535
     15520     15519     15534     15536     15520     15519     15534     15540
     15521     15519     15518     15522     15521     15519     15518     15526
     15521     15519     15518     15530     15521     15519     15534     15535
     15521     15519     15534     15536     15521     15519     15534     15540
     15522     15518     15519     15534     15522     15518     15526     15527
     15522     15518     15526     15528     15522     15518     15526     15529
     15522     15518     15530     15531     15522     15518     15530     15532
     15522     15518     15530     15533     15523     15522     15518     15526
     15523     15522     15518     15530     15524     15522     15518     15526
     15524     15522     15518     15530     15525     15522     15518     15526
     15525     15522     15518     15530     15526     15518     15519     15534
     15526     15518     15530     15531     15526     15518     15530     15532
     15526     15518     15530     15533     15527     15526     15518     15530
     15528     15526     15518     15530     15529     15526     15518     15530
     15530     15518     15519     15534     15534     15540     15537     15538
     15534     15540     15537     15539     15534     15540     15537     15541
     15535     15534     15540     15537     15536     15534     15540     15537
     15537     15541     15542     15543     15537     15541     15542     15544
     15537     15541     15542     15545     15538     15537     15541     15542
     15539     15537     15541     15542     15540     15537     15541     15542
     15541     15542     15545     15546     15541     15542     15545     15547
     15541     15542     15545     15553     15542     15545     15547     15548
     15542     15545     15553     15554     15542     15545     15553     15555
     15542     15545     15553     15556     15543     15542     15545     15546
     15543     15542     15545     15547     15543     15542     15545     15553
     15544     15542     15545     15546     15544     15542     15545     15547
     15544     15542     15545     15553     15545     15547     15548     15549
     15545     15547     15548     15550     15545     15553     15556     15557
     15546     15545     15547     15548     15546     15545     15553     15554
     15546     15545     15553     15555     15546     15545     15553     15556
     15547     15545     15553     15554     15547     15545     15553     15555
     15547     15545     15553     15556     15547     15548     15550     15551
     15547     15548     15550     15552     15547     15548     15550     15562
     15548     15547     15545     15553     15548     15550     15562     15563
     15548     15550     15562     15564     15548     15550     15562     15565
     15549     15548     15550     15551     15549     15548     15550     15552
     15549     15548     15550     15562     15550     15562     15565     15566
     15550     15562     15565     15567     15550     15562     15565     15568
     15551     15550     15562     15563     15551     15550     15562     15564
     15551     15550     15562     15565     15552     15550     15562     15563
     15552     15550     15562     15564     15552     15550     15562     15565
     15553     15556     15557     15558     15553     15556     15557     15559
     15554     15553     15556     15557     15555     15553     15556     15557
     15556     15557     15559     15560     15556     15557     15559     15561
     15556     15557     15559     15609     15557     15559     15609     15610
     15557     15559     15609     15611     15557     15559     15609     15612
     15558     15557     15559     15560     15558     15557     15559     15561
     15558     15557     15559     15609     15559     15609     15612     15613
     15559     15609     15612     15614     15559     15609     15612     15615
     15560     15559     15609     15610     15560     15559     15609     15611
     15560     15559     15609     15612     15561     15559     15609     15610
     15561     15559     15609     15611     15561     15559     15609     15612
     15562     15565     15568     15569     15562     15565     15568     15570
     15562     15565     15568     15571     15563     15562     15565     15566
     15563     15562     15565     15567     15563     15562     15565     15568
     15564     15562     15565     15566     15564     15562     15565     15567
     15564     15562     15565     15568     15565     15568     15571     15572
     15565     15568     15571     15573     15565     15568     15571     15574
     15566     15565     15568     15569     15566     15565     15568     15570
     15566     15565     15568     15571     15567     15565     15568     15569
     15567     15565     15568     15570     15567     15565     15568     15571
     15568     15571     15574     15575     15568     15571     15574     15576
     15568     15571     15574     15577     15569     15568     15571     15572
     15569     15568     15571     15573     15569     15568     15571     15574
     15570     15568     15571     15572     15570     15568     15571     15573
     15570     15568     15571     15574     15571     15574     15577     15578
     15571     15574     15577     15579     15571     15574     15577     15580
     15572     15571     15574     15575     15572     15571     15574     15576
     15572     15571     15574     15577     15573     15571     15574     15575
     15573     15571     15574     15576     15573     15571     15574     15577
     15574     15577     15580     15581     15574     15577     15580     15582
     15575     15574     15577     15578     15575     15574     15577     15579
     15575     15574     15577     15580     15576     15574     15577     15578
     15576     15574     15577     15579     15576     15574     15577     15580
     15577     15580     15582     15583     15577     15580     15582     15584
     15578     15577     15580     15581     15578     15577     15580     15582
     15579     15577     15580     15581     15579     15577     15580     15582
     15580     15582     15584     15585     15580     15582     15584     15586
     15580     15582     15584     15587     15581     15580     15582     15583
     15581     15580     15582     15584     15582     15584     15587     15588
     15582     15584     15587     15589     15582     15584     15587     15590
     15583     15582     15584     15585     15583     15582     15584     15586
     15583     15582     15584     15587     15584     15587     15590     15591
     15584     15587     15590     15592     15584     15587     15590     15593
     15585     15584     15587     15588     15585     15584     15587     15589
     15585     15584     15587     15590     15586     15584     15587     15588
     15586     15584     15587     15589     15586     15584     15587     15590
     15587     15590     15593     15594     15587     15590     15593     15595
     15587     15590     15593     15596     15588     15587     15590     15591
     15588     15587     15590     15592     15588     15587     15590     15593
     15589     15587     15590     15591     15589     15587     15590     15592
     15589     15587     15590     15593     15590     15593     15596     15597
     15590     15593     15596     15598     15590     15593     15596     15599
     15591     15590     15593     15594     15591     15590     15593     15595
     15591     15590     15593     15596     15592     15590     15593     15594
     15592     15590     15593     15595     15592     15590     15593     15596
     15593     15596     15599     15600     15593     15596     15599     15601
     15593     15596     15599     15602     15594     15593     15596     15597
     15594     15593     15596     15598     15594     15593     15596     15599
     15595     15593     15596     15597     15595     15593     15596     15598
     15595     15593     15596     15599     15596     15599     15602     15603
     15596     15599     15602     15604     15596     15599     15602     15605
     15597     15596     15599     15600     15597     15596     15599     15601
     15597     15596     15599     15602     15598     15596     15599     15600
     15598     15596     15599     15601     15598     15596     15599     15602
     15599     15602     15605     15606     15599     15602     15605     15607
     15599     15602     15605     15608     15600     15599     15602     15603
     15600     15599     15602     15604     15600     15599     15602     15605
     15601     15599     15602     15603     15601     15599     15602     15604
     15601     15599     15602     15605     15603     15602     15605     15606
     15603     15602     15605     15607     15603     15602     15605     15608
     15604     15602     15605     15606     15604     15602     15605     15607
     15604     15602     15605     15608     15609     15612     15615     15616
     15609     15612     15615     15617     15609     15612     15615     15618
     15610     15609     15612     15613     15610     15609     15612     15614
     15610     15609     15612     15615     15611     15609     15612     15613
     15611     15609     15612     15614     15611     15609     15612     15615
     15612     15615     15618     15619     15612     15615     15618     15620
     15612     15615     15618     15621     15613     15612     15615     15616
     15613     15612     15615     15617     15613     15612     15615     15618
     15614     15612     15615     15616     15614     15612     15615     15617
     15614     15612     15615     15618     15615     15618     15621     15622
     15615     15618     15621     15623     15615     15618     15621     15624
     15616     15615     15618     15619     15616     15615     15618     15620
     15616     15615     15618     15621     15617     15615     15618     15619
     15617     15615     15618     15620     15617     15615     15618     15621
     15618     15621     15624     15625     15618     15621     15624     15626
     15618     15621     15624     15627     15619     15618     15621     15622
     15619     15618     15621     15623     15619     15618     15621     15624
     15620     15618     15621     15622     15620     15618     15621     15623
     15620     15618     15621     15624     15621     15624     15627     15628
     15621     15624     15627     15629     15621     15624     15627     15630
     15622     15621     15624     15625     15622     15621     15624     15626
     15622     15621     15624     15627     15623     15621     15624     15625
     15623     15621     15624     15626     15623     15621     15624     15627
     15624     15627     15630     15631     15624     15627     15630     15632
     15624     15627     15630     15633     15625     15624     15627     15628
     15625     15624     15627     15629     15625     15624     15627     15630
     15626     15624     15627     15628     15626     15624     15627     15629
     15626     15624     15627     15630     15627     15630     15633     15634
     15627     15630     15633     15635     15627     15630     15633     15636
     15628     15627     15630     15631     15628     15627     15630     15632
     15628     15627     15630     15633     15629     15627     15630     15631
     15629     15627     15630     15632     15629     15627     15630     15633
     15630     15633     15636     15637     15630     15633     15636     15638
     15630     15633     15636     15639     15631     15630     15633     15634
     15631     15630     15633     15635     15631     15630     15633     15636
     15632     15630     15633     15634     15632     15630     15633     15635
     15632     15630     15633     15636     15633     15636     15639     15640
     15633     15636     15639     15641     15633     15636     15639     15642
     15634     15633     15636     15637     15634     15633     15636     15638
     15634     15633     15636     15639     15635     15633     15636     15637
     15635     15633     15636     15638     15635     15633     15636     15639
     15636     15639     15642     15643     15636     15639     15642     15644
     15636     15639     15642     15645     15637     15636     15639     15640
     15637     15636     15639     15641     15637     15636     15639     15642
     15638     15636     15639     15640     15638     15636     15639     15641
     15638     15636     15639     15642     15639     15642     15645     15646
     15639     15642     15645     15647     15639     15642     15645     15648
     15640     15639     15642     15643     15640     15639     15642     15644
     15640     15639     15642     15645     15641     15639     15642     15643
     15641     15639     15642     15644     15641     15639     15642     15645
     15642     15645     15648     15649     15642     15645     15648     15650
     15642     15645     15648     15651     15643     15642     15645     15646
     15643     15642     15645     15647     15643     15642     15645     15648
     15644     15642     15645     15646     15644     15642     15645     15647
     15644     15642     15645     15648     15646     15645     15648     15649
     15646     15645     15648     15650     15646     15645     15648     15651
     15647     15645     15648     15649     15647     15645     15648     15650
     15647     15645     15648     15651     15652     15653     15668     15669
     15652     15653     15668     15670     15652     15653     15668     15674
     15653     15652     15656     15657     15653     15652     15656     15658
     15653     15652     15656     15659     15653     15652     15660     15661
     15653     15652     15660     15662     15653     15652     15660     15663
     15653     15652     15664     15665     15653     15652     15664     15666
     15653     15652     15664     15667     15653     15668     15674     15671
     15654     15653     15652     15656     15654     15653     15652     15660
     15654     15653     15652     15664     15654     15653     15668     15669
     15654     15653     15668     15670     15654     15653     15668     15674
     15655     15653     15652     15656     15655     15653     15652     15660
     15655     15653     15652     15664     15655     15653     15668     15669
     15655     15653     15668     15670     15655     15653     15668     15674
     15656     15652     15653     15668     15656     15652     15660     15661
     15656     15652     15660     15662     15656     15652     15660     15663
     15656     15652     15664     15665     15656     15652     15664     15666
     15656     15652     15664     15667     15657     15656     15652     15660
     15657     15656     15652     15664     15658     15656     15652     15660
     15658     15656     15652     15664     15659     15656     15652     15660
     15659     15656     15652     15664     15660     15652     15653     15668
     15660     15652     15664     15665     15660     15652     15664     15666
     15660     15652     15664     15667     15661     15660     15652     15664
     15662     15660     15652     15664     15663     15660     15652     15664
     15664     15652     15653     15668     15668     15674     15671     15672
     15668     15674     15671     15673     15668     15674     15671     15675
     15669     15668     15674     15671     15670     15668     15674     15671
     15671     15675     15676     15677     15671     15675     15676     15678
     15671     15675     15676     15679     15672     15671     15675     15676
     15673     15671     15675     15676     15674     15671     15675     15676
     15675     15676     15679     15680     15675     15676     15679     15681
     15675     15676     15679     15687     15676     15679     15681     15682
     15676     15679     15687     15688     15676     15679     15687     15689
     15676     15679     15687     15690     15677     15676     15679     15680
     15677     15676     15679     15681     15677     15676     15679     15687
     15678     15676     15679     15680     15678     15676     15679     15681
     15678     15676     15679     15687     15679     15681     15682     15683
     15679     15681     15682     15684     15679     15687     15690     15691
     15680     15679     15681     15682     15680     15679     15687     15688
     15680     15679     15687     15689     15680     15679     15687     15690
     15681     15679     15687     15688     15681     15679     15687     15689
     15681     15679     15687     15690     15681     15682     15684     15685
     15681     15682     15684     15686     15681     15682     15684     15696
     15682     15681     15679     15687     15682     15684     15696     15697
     15682     15684     15696     15698     15682     15684     15696     15699
     15683     15682     15684     15685     15683     15682     15684     15686
     15683     15682     15684     15696     15684     15696     15699     15700
     15684     15696     15699     15701     15684     15696     15699     15702
     15685     15684     15696     15697     15685     15684     15696     15698
     15685     15684     15696     15699     15686     15684     15696     15697
     15686     15684     15696     15698     15686     15684     15696     15699
     15687     15690     15691     15692     15687     15690     15691     15693
     15688     15687     15690     15691     15689     15687     15690     15691
     15690     15691     15693     15694     15690     15691     15693     15695
     15690     15691     15693     15743     15691     15693     15743     15744
     15691     15693     15743     15745     15691     15693     15743     15746
     15692     15691     15693     15694     15692     15691     15693     15695
     15692     15691     15693     15743     15693     15743     15746     15747
     15693     15743     15746     15748     15693     15743     15746     15749
     15694     15693     15743     15744     15694     15693     15743     15745
     15694     15693     15743     15746     15695     15693     15743     15744
     15695     15693     15743     15745     15695     15693     15743     15746
     15696     15699     15702     15703     15696     15699     15702     15704
     15696     15699     15702     15705     15697     15696     15699     15700
     15697     15696     15699     15701     15697     15696     15699     15702
     15698     15696     15699     15700     15698     15696     15699     15701
     15698     15696     15699     15702     15699     15702     15705     15706
     15699     15702     15705     15707     15699     15702     15705     15708
     15700     15699     15702     15703     15700     15699     15702     15704
     15700     15699     15702     15705     15701     15699     15702     15703
     15701     15699     15702     15704     15701     15699     15702     15705
     15702     15705     15708     15709     15702     15705     15708     15710
     15702     15705     15708     15711     15703     15702     15705     15706
     15703     15702     15705     15707     15703     15702     15705     15708
     15704     15702     15705     15706     15704     15702     15705     15707
     15704     15702     15705     15708     15705     15708     15711     15712
     15705     15708     15711     15713     15705     15708     15711     15714
     15706     15705     15708     15709     15706     15705     15708     15710
     15706     15705     15708     15711     15707     15705     15708     15709
     15707     15705     15708     15710     15707     15705     15708     15711
     15708     15711     15714     15715     15708     15711     15714     15716
     15709     15708     15711     15712     15709     15708     15711     15713
     15709     15708     15711     15714     15710     15708     15711     15712
     15710     15708     15711     15713     15710     15708     15711     15714
     15711     15714     15716     15717     15711     15714     15716     15718
     15712     15711     15714     15715     15712     15711     15714     15716
     15713     15711     15714     15715     15713     15711     15714     15716
     15714     15716     15718     15719     15714     15716     15718     15720
     15714     15716     15718     15721     15715     15714     15716     15717
     15715     15714     15716     15718     15716     15718     15721     15722
     15716     15718     15721     15723     15716     15718     15721     15724
     15717     15716     15718     15719     15717     15716     15718     15720
     15717     15716     15718     15721     15718     15721     15724     15725
     15718     15721     15724     15726     15718     15721     15724     15727
     15719     15718     15721     15722     15719     15718     15721     15723
     15719     15718     15721     15724     15720     15718     15721     15722
     15720     15718     15721     15723     15720     15718     15721     15724
     15721     15724     15727     15728     15721     15724     15727     15729
     15721     15724     15727     15730     15722     15721     15724     15725
     15722     15721     15724     15726     15722     15721     15724     15727
     15723     15721     15724     15725     15723     15721     15724     15726
     15723     15721     15724     15727     15724     15727     15730     15731
     15724     15727     15730     15732     15724     15727     15730     15733
     15725     15724     15727     15728     15725     15724     15727     15729
     15725     15724     15727     15730     15726     15724     15727     15728
     15726     15724     15727     15729     15726     15724     15727     15730
     15727     15730     15733     15734     15727     15730     15733     15735
     15727     15730     15733     15736     15728     15727     15730     15731
     15728     15727     15730     15732     15728     15727     15730     15733
     15729     15727     15730     15731     15729     15727     15730     15732
     15729     15727     15730     15733     15730     15733     15736     15737
     15730     15733     15736     15738     15730     15733     15736     15739
     15731     15730     15733     15734     15731     15730     15733     15735
     15731     15730     15733     15736     15732     15730     15733     15734
     15732     15730     15733     15735     15732     15730     15733     15736
     15733     15736     15739     15740     15733     15736     15739     15741
     15733     15736     15739     15742     15734     15733     15736     15737
     15734     15733     15736     15738     15734     15733     15736     15739
     15735     15733     15736     15737     15735     15733     15736     15738
     15735     15733     15736     15739     15737     15736     15739     15740
     15737     15736     15739     15741     15737     15736     15739     15742
     15738     15736     15739     15740     15738     15736     15739     15741
     15738     15736     15739     15742     15743     15746     15749     15750
     15743     15746     15749     15751     15743     15746     15749     15752
     15744     15743     15746     15747     15744     15743     15746     15748
     15744     15743     15746     15749     15745     15743     15746     15747
     15745     15743     15746     15748     15745     15743     15746     15749
     15746     15749     15752     15753     15746     15749     15752     15754
     15746     15749     15752     15755     15747     15746     15749     15750
     15747     15746     15749     15751     15747     15746     15749     15752
     15748     15746     15749     15750     15748     15746     15749     15751
     15748     15746     15749     15752     15749     15752     15755     15756
     15749     15752     15755     15757     15749     15752     15755     15758
     15750     15749     15752     15753     15750     15749     15752     15754
     15750     15749     15752     15755     15751     15749     15752     15753
     15751     15749     15752     15754     15751     15749     15752     15755
     15752     15755     15758     15759     15752     15755     15758     15760
     15752     15755     15758     15761     15753     15752     15755     15756
     15753     15752     15755     15757     15753     15752     15755     15758
     15754     15752     15755     15756     15754     15752     15755     15757
     15754     15752     15755     15758     15755     15758     15761     15762
     15755     15758     15761     15763     15755     15758     15761     15764
     15756     15755     15758     15759     15756     15755     15758     15760
     15756     15755     15758     15761     15757     15755     15758     15759
     15757     15755     15758     15760     15757     15755     15758     15761
     15758     15761     15764     15765     15758     15761     15764     15766
     15758     15761     15764     15767     15759     15758     15761     15762
     15759     15758     15761     15763     15759     15758     15761     15764
     15760     15758     15761     15762     15760     15758     15761     15763
     15760     15758     15761     15764     15761     15764     15767     15768
     15761     15764     15767     15769     15761     15764     15767     15770
     15762     15761     15764     15765     15762     15761     15764     15766
     15762     15761     15764     15767     15763     15761     15764     15765
     15763     15761     15764     15766     15763     15761     15764     15767
     15764     15767     15770     15771     15764     15767     15770     15772
     15764     15767     15770     15773     15765     15764     15767     15768
     15765     15764     15767     15769     15765     15764     15767     15770
     15766     15764     15767     15768     15766     15764     15767     15769
     15766     15764     15767     15770     15767     15770     15773     15774
     15767     15770     15773     15775     15767     15770     15773     15776
     15768     15767     15770     15771     15768     15767     15770     15772
     15768     15767     15770     15773     15769     15767     15770     15771
     15769     15767     15770     15772     15769     15767     15770     15773
     15770     15773     15776     15777     15770     15773     15776     15778
     15770     15773     15776     15779     15771     15770     15773     15774
     15771     15770     15773     15775     15771     15770     15773     15776
     15772     15770     15773     15774     15772     15770     15773     15775
     15772     15770     15773     15776     15773     15776     15779     15780
     15773     15776     15779     15781     15773     15776     15779     15782
     15774     15773     15776     15777     15774     15773     15776     15778
     15774     15773     15776     15779     15775     15773     15776     15777
     15775     15773     15776     15778     15775     15773     15776     15779
     15776     15779     15782     15783     15776     15779     15782     15784
     15776     15779     15782     15785     15777     15776     15779     15780
     15777     15776     15779     15781     15777     15776     15779     15782
     15778     15776     15779     15780     15778     15776     15779     15781
     15778     15776     15779     15782     15780     15779     15782     15783
     15780     15779     15782     15784     15780     15779     15782     15785
     15781     15779     15782     15783     15781     15779     15782     15784
     15781     15779     15782     15785     15786     15790     15792     15793
     15786     15790     15792     15794     15786     15790     15795     15796
     15786     15790     15795     15797     15786     15790     15795     15801
     15787     15786     15790     15791     15787     15786     15790     15792
     15787     15786     15790     15795     15788     15786     15790     15791
     15788     15786     15790     15792     15788     15786     15790     15795
     15789     15786     15790     15791     15789     15786     15790     15792
     15789     15786     15790     15795     15790     15795     15801     15798
     15791     15790     15792     15793     15791     15790     15792     15794
     15791     15790     15795     15796     15791     15790     15795     15797
     15791     15790     15795     15801     15792     15790     15795     15796
     15792     15790     15795     15797     15792     15790     15795     15801
     15793     15792     15790     15795     15794     15792     15790     15795
     15795     15801     15798     15799     15795     15801     15798     15800
     15795     15801     15798     15802     15796     15795     15801     15798
     15797     15795     15801     15798     15798     15802     15803     15804
     15798     15802     15803     15805     15798     15802     15803     15806
     15799     15798     15802     15803     15800     15798     15802     15803
     15801     15798     15802     15803     15802     15803     15806     15807
     15802     15803     15806     15808     15802     15803     15806     15814
     15803     15806     15808     15809     15803     15806     15814     15815
     15803     15806     15814     15816     15803     15806     15814     15817
     15804     15803     15806     15807     15804     15803     15806     15808
     15804     15803     15806     15814     15805     15803     15806     15807
     15805     15803     15806     15808     15805     15803     15806     15814
     15806     15808     15809     15810     15806     15808     15809     15811
     15806     15814     15817     15818     15807     15806     15808     15809
     15807     15806     15814     15815     15807     15806     15814     15816
     15807     15806     15814     15817     15808     15806     15814     15815
     15808     15806     15814     15816     15808     15806     15814     15817
     15808     15809     15811     15812     15808     15809     15811     15813
     15808     15809     15811     15823     15809     15808     15806     15814
     15809     15811     15823     15824     15809     15811     15823     15825
     15809     15811     15823     15826     15810     15809     15811     15812
     15810     15809     15811     15813     15810     15809     15811     15823
     15811     15823     15826     15827     15811     15823     15826     15828
     15811     15823     15826     15829     15812     15811     15823     15824
     15812     15811     15823     15825     15812     15811     15823     15826
     15813     15811     15823     15824     15813     15811     15823     15825
     15813     15811     15823     15826     15814     15817     15818     15819
     15814     15817     15818     15820     15815     15814     15817     15818
     15816     15814     15817     15818     15817     15818     15820     15821
     15817     15818     15820     15822     15817     15818     15820     15870
     15818     15820     15870     15871     15818     15820     15870     15872
     15818     15820     15870     15873     15819     15818     15820     15821
     15819     15818     15820     15822     15819     15818     15820     15870
     15820     15870     15873     15874     15820     15870     15873     15875
     15820     15870     15873     15876     15821     15820     15870     15871
     15821     15820     15870     15872     15821     15820     15870     15873
     15822     15820     15870     15871     15822     15820     15870     15872
     15822     15820     15870     15873     15823     15826     15829     15830
     15823     15826     15829     15831     15823     15826     15829     15832
     15824     15823     15826     15827     15824     15823     15826     15828
     15824     15823     15826     15829     15825     15823     15826     15827
     15825     15823     15826     15828     15825     15823     15826     15829
     15826     15829     15832     15833     15826     15829     15832     15834
     15826     15829     15832     15835     15827     15826     15829     15830
     15827     15826     15829     15831     15827     15826     15829     15832
     15828     15826     15829     15830     15828     15826     15829     15831
     15828     15826     15829     15832     15829     15832     15835     15836
     15829     15832     15835     15837     15829     15832     15835     15838
     15830     15829     15832     15833     15830     15829     15832     15834
     15830     15829     15832     15835     15831     15829     15832     15833
     15831     15829     15832     15834     15831     15829     15832     15835
     15832     15835     15838     15839     15832     15835     15838     15840
     15832     15835     15838     15841     15833     15832     15835     15836
     15833     15832     15835     15837     15833     15832     15835     15838
     15834     15832     15835     15836     15834     15832     15835     15837
     15834     15832     15835     15838     15835     15838     15841     15842
     15835     15838     15841     15843     15836     15835     15838     15839
     15836     15835     15838     15840     15836     15835     15838     15841
     15837     15835     15838     15839     15837     15835     15838     15840
     15837     15835     15838     15841     15838     15841     15843     15844
     15838     15841     15843     15845     15839     15838     15841     15842
     15839     15838     15841     15843     15840     15838     15841     15842
     15840     15838     15841     15843     15841     15843     15845     15846
     15841     15843     15845     15847     15841     15843     15845     15848
     15842     15841     15843     15844     15842     15841     15843     15845
     15843     15845     15848     15849     15843     15845     15848     15850
     15843     15845     15848     15851     15844     15843     15845     15846
     15844     15843     15845     15847     15844     15843     15845     15848
     15845     15848     15851     15852     15845     15848     15851     15853
     15845     15848     15851     15854     15846     15845     15848     15849
     15846     15845     15848     15850     15846     15845     15848     15851
     15847     15845     15848     15849     15847     15845     15848     15850
     15847     15845     15848     15851     15848     15851     15854     15855
     15848     15851     15854     15856     15848     15851     15854     15857
     15849     15848     15851     15852     15849     15848     15851     15853
     15849     15848     15851     15854     15850     15848     15851     15852
     15850     15848     15851     15853     15850     15848     15851     15854
     15851     15854     15857     15858     15851     15854     15857     15859
     15851     15854     15857     15860     15852     15851     15854     15855
     15852     15851     15854     15856     15852     15851     15854     15857
     15853     15851     15854     15855     15853     15851     15854     15856
     15853     15851     15854     15857     15854     15857     15860     15861
     15854     15857     15860     15862     15854     15857     15860     15863
     15855     15854     15857     15858     15855     15854     15857     15859
     15855     15854     15857     15860     15856     15854     15857     15858
     15856     15854     15857     15859     15856     15854     15857     15860
     15857     15860     15863     15864     15857     15860     15863     15865
     15857     15860     15863     15866     15858     15857     15860     15861
     15858     15857     15860     15862     15858     15857     15860     15863
     15859     15857     15860     15861     15859     15857     15860     15862
     15859     15857     15860     15863     15860     15863     15866     15867
     15860     15863     15866     15868     15860     15863     15866     15869
     15861     15860     15863     15864     15861     15860     15863     15865
     15861     15860     15863     15866     15862     15860     15863     15864
     15862     15860     15863     15865     15862     15860     15863     15866
     15864     15863     15866     15867     15864     15863     15866     15868
     15864     15863     15866     15869     15865     15863     15866     15867
     15865     15863     15866     15868     15865     15863     15866     15869
     15870     15873     15876     15877     15870     15873     15876     15878
     15870     15873     15876     15879     15871     15870     15873     15874
     15871     15870     15873     15875     15871     15870     15873     15876
     15872     15870     15873     15874     15872     15870     15873     15875
     15872     15870     15873     15876     15873     15876     15879     15880
     15873     15876     15879     15881     15873     15876     15879     15882
     15874     15873     15876     15877     15874     15873     15876     15878
     15874     15873     15876     15879     15875     15873     15876     15877
     15875     15873     15876     15878     15875     15873     15876     15879
     15876     15879     15882     15883     15876     15879     15882     15884
     15876     15879     15882     15885     15877     15876     15879     15880
     15877     15876     15879     15881     15877     15876     15879     15882
     15878     15876     15879     15880     15878     15876     15879     15881
     15878     15876     15879     15882     15879     15882     15885     15886
     15879     15882     15885     15887     15879     15882     15885     15888
     15880     15879     15882     15883     15880     15879     15882     15884
     15880     15879     15882     15885     15881     15879     15882     15883
     15881     15879     15882     15884     15881     15879     15882     15885
     15882     15885     15888     15889     15882     15885     15888     15890
     15882     15885     15888     15891     15883     15882     15885     15886
     15883     15882     15885     15887     15883     15882     15885     15888
     15884     15882     15885     15886     15884     15882     15885     15887
     15884     15882     15885     15888     15885     15888     15891     15892
     15885     15888     15891     15893     15885     15888     15891     15894
     15886     15885     15888     15889     15886     15885     15888     15890
     15886     15885     15888     15891     15887     15885     15888     15889
     15887     15885     15888     15890     15887     15885     15888     15891
     15888     15891     15894     15895     15888     15891     15894     15896
     15888     15891     15894     15897     15889     15888     15891     15892
     15889     15888     15891     15893     15889     15888     15891     15894
     15890     15888     15891     15892     15890     15888     15891     15893
     15890     15888     15891     15894     15891     15894     15897     15898
     15891     15894     15897     15899     15891     15894     15897     15900
     15892     15891     15894     15895     15892     15891     15894     15896
     15892     15891     15894     15897     15893     15891     15894     15895
     15893     15891     15894     15896     15893     15891     15894     15897
     15894     15897     15900     15901     15894     15897     15900     15902
     15894     15897     15900     15903     15895     15894     15897     15898
     15895     15894     15897     15899     15895     15894     15897     15900
     15896     15894     15897     15898     15896     15894     15897     15899
     15896     15894     15897     15900     15897     15900     15903     15904
     15897     15900     15903     15905     15897     15900     15903     15906
     15898     15897     15900     15901     15898     15897     15900     15902
     15898     15897     15900     15903     15899     15897     15900     15901
     15899     15897     15900     15902     15899     15897     15900     15903
     15900     15903     15906     15907     15900     15903     15906     15908
     15900     15903     15906     15909     15901     15900     15903     15904
     15901     15900     15903     15905     15901     15900     15903     15906
     15902     15900     15903     15904     15902     15900     15903     15905
     15902     15900     15903     15906     15903     15906     15909     15910
     15903     15906     15909     15911     15903     15906     15909     15912
     15904     15903     15906     15907     15904     15903     15906     15908
     15904     15903     15906     15909     15905     15903     15906     15907
     15905     15903     15906     15908     15905     15903     15906     15909
     15907     15906     15909     15910     15907     15906     15909     15911
     15907     15906     15909     15912     15908     15906     15909     15910
     15908     15906     15909     15911     15908     15906     15909     15912
     15913     15914     15929     15930     15913     15914     15929     15931
     15913     15914     15929     15935     15914     15913     15917     15918
     15914     15913     15917     15919     15914     15913     15917     15920
     15914     15913     15921     15922     15914     15913     15921     15923
     15914     15913     15921     15924     15914     15913     15925     15926
     15914     15913     15925     15927     15914     15913     15925     15928
     15914     15929     15935     15932     15915     15914     15913     15917
     15915     15914     15913     15921     15915     15914     15913     15925
     15915     15914     15929     15930     15915     15914     15929     15931
     15915     15914     15929     15935     15916     15914     15913     15917
     15916     15914     15913     15921     15916     15914     15913     15925
     15916     15914     15929     15930     15916     15914     15929     15931
     15916     15914     15929     15935     15917     15913     15914     15929
     15917     15913     15921     15922     15917     15913     15921     15923
     15917     15913     15921     15924     15917     15913     15925     15926
     15917     15913     15925     15927     15917     15913     15925     15928
     15918     15917     15913     15921     15918     15917     15913     15925
     15919     15917     15913     15921     15919     15917     15913     15925
     15920     15917     15913     15921     15920     15917     15913     15925
     15921     15913     15914     15929     15921     15913     15925     15926
     15921     15913     15925     15927     15921     15913     15925     15928
     15922     15921     15913     15925     15923     15921     15913     15925
     15924     15921     15913     15925     15925     15913     15914     15929
     15929     15935     15932     15933     15929     15935     15932     15934
     15929     15935     15932     15936     15930     15929     15935     15932
     15931     15929     15935     15932     15932     15936     15937     15938
     15932     15936     15937     15939     15932     15936     15937     15940
     15933     15932     15936     15937     15934     15932     15936     15937
     15935     15932     15936     15937     15936     15937     15940     15941
     15936     15937     15940     15942     15936     15937     15940     15948
     15937     15940     15942     15943     15937     15940     15948     15949
     15937     15940     15948     15950     15937     15940     15948     15951
     15938     15937     15940     15941     15938     15937     15940     15942
     15938     15937     15940     15948     15939     15937     15940     15941
     15939     15937     15940     15942     15939     15937     15940     15948
     15940     15942     15943     15944     15940     15942     15943     15945
     15940     15948     15951     15952     15941     15940     15942     15943
     15941     15940     15948     15949     15941     15940     15948     15950
     15941     15940     15948     15951     15942     15940     15948     15949
     15942     15940     15948     15950     15942     15940     15948     15951
     15942     15943     15945     15946     15942     15943     15945     15947
     15942     15943     15945     15957     15943     15942     15940     15948
     15943     15945     15957     15958     15943     15945     15957     15959
     15943     15945     15957     15960     15944     15943     15945     15946
     15944     15943     15945     15947     15944     15943     15945     15957
     15945     15957     15960     15961     15945     15957     15960     15962
     15945     15957     15960     15963     15946     15945     15957     15958
     15946     15945     15957     15959     15946     15945     15957     15960
     15947     15945     15957     15958     15947     15945     15957     15959
     15947     15945     15957     15960     15948     15951     15952     15953
     15948     15951     15952     15954     15949     15948     15951     15952
     15950     15948     15951     15952     15951     15952     15954     15955
     15951     15952     15954     15956     15951     15952     15954     16004
     15952     15954     16004     16005     15952     15954     16004     16006
     15952     15954     16004     16007     15953     15952     15954     15955
     15953     15952     15954     15956     15953     15952     15954     16004
     15954     16004     16007     16008     15954     16004     16007     16009
     15954     16004     16007     16010     15955     15954     16004     16005
     15955     15954     16004     16006     15955     15954     16004     16007
     15956     15954     16004     16005     15956     15954     16004     16006
     15956     15954     16004     16007     15957     15960     15963     15964
     15957     15960     15963     15965     15957     15960     15963     15966
     15958     15957     15960     15961     15958     15957     15960     15962
     15958     15957     15960     15963     15959     15957     15960     15961
     15959     15957     15960     15962     15959     15957     15960     15963
     15960     15963     15966     15967     15960     15963     15966     15968
     15960     15963     15966     15969     15961     15960     15963     15964
     15961     15960     15963     15965     15961     15960     15963     15966
     15962     15960     15963     15964     15962     15960     15963     15965
     15962     15960     15963     15966     15963     15966     15969     15970
     15963     15966     15969     15971     15963     15966     15969     15972
     15964     15963     15966     15967     15964     15963     15966     15968
     15964     15963     15966     15969     15965     15963     15966     15967
     15965     15963     15966     15968     15965     15963     15966     15969
     15966     15969     15972     15973     15966     15969     15972     15974
     15966     15969     15972     15975     15967     15966     15969     15970
     15967     15966     15969     15971     15967     15966     15969     15972
     15968     15966     15969     15970     15968     15966     15969     15971
     15968     15966     15969     15972     15969     15972     15975     15976
     15969     15972     15975     15977     15970     15969     15972     15973
     15970     15969     15972     15974     15970     15969     15972     15975
     15971     15969     15972     15973     15971     15969     15972     15974
     15971     15969     15972     15975     15972     15975     15977     15978
     15972     15975     15977     15979     15973     15972     15975     15976
     15973     15972     15975     15977     15974     15972     15975     15976
     15974     15972     15975     15977     15975     15977     15979     15980
     15975     15977     15979     15981     15975     15977     15979     15982
     15976     15975     15977     15978     15976     15975     15977     15979
     15977     15979     15982     15983     15977     15979     15982     15984
     15977     15979     15982     15985     15978     15977     15979     15980
     15978     15977     15979     15981     15978     15977     15979     15982
     15979     15982     15985     15986     15979     15982     15985     15987
     15979     15982     15985     15988     15980     15979     15982     15983
     15980     15979     15982     15984     15980     15979     15982     15985
     15981     15979     15982     15983     15981     15979     15982     15984
     15981     15979     15982     15985     15982     15985     15988     15989
     15982     15985     15988     15990     15982     15985     15988     15991
     15983     15982     15985     15986     15983     15982     15985     15987
     15983     15982     15985     15988     15984     15982     15985     15986
     15984     15982     15985     15987     15984     15982     15985     15988
     15985     15988     15991     15992     15985     15988     15991     15993
     15985     15988     15991     15994     15986     15985     15988     15989
     15986     15985     15988     15990     15986     15985     15988     15991
     15987     15985     15988     15989     15987     15985     15988     15990
     15987     15985     15988     15991     15988     15991     15994     15995
     15988     15991     15994     15996     15988     15991     15994     15997
     15989     15988     15991     15992     15989     15988     15991     15993
     15989     15988     15991     15994     15990     15988     15991     15992
     15990     15988     15991     15993     15990     15988     15991     15994
     15991     15994     15997     15998     15991     15994     15997     15999
     15991     15994     15997     16000     15992     15991     15994     15995
     15992     15991     15994     15996     15992     15991     15994     15997
     15993     15991     15994     15995     15993     15991     15994     15996
     15993     15991     15994     15997     15994     15997     16000     16001
     15994     15997     16000     16002     15994     15997     16000     16003
     15995     15994     15997     15998     15995     15994     15997     15999
     15995     15994     15997     16000     15996     15994     15997     15998
     15996     15994     15997     15999     15996     15994     15997     16000
     15998     15997     16000     16001     15998     15997     16000     16002
     15998     15997     16000     16003     15999     15997     16000     16001
     15999     15997     16000     16002     15999     15997     16000     16003
     16004     16007     16010     16011     16004     16007     16010     16012
     16004     16007     16010     16013     16005     16004     16007     16008
     16005     16004     16007     16009     16005     16004     16007     16010
     16006     16004     16007     16008     16006     16004     16007     16009
     16006     16004     16007     16010     16007     16010     16013     16014
     16007     16010     16013     16015     16007     16010     16013     16016
     16008     16007     16010     16011     16008     16007     16010     16012
     16008     16007     16010     16013     16009     16007     16010     16011
     16009     16007     16010     16012     16009     16007     16010     16013
     16010     16013     16016     16017     16010     16013     16016     16018
     16010     16013     16016     16019     16011     16010     16013     16014
     16011     16010     16013     16015     16011     16010     16013     16016
     16012     16010     16013     16014     16012     16010     16013     16015
     16012     16010     16013     16016     16013     16016     16019     16020
     16013     16016     16019     16021     16013     16016     16019     16022
     16014     16013     16016     16017     16014     16013     16016     16018
     16014     16013     16016     16019     16015     16013     16016     16017
     16015     16013     16016     16018     16015     16013     16016     16019
     16016     16019     16022     16023     16016     16019     16022     16024
     16016     16019     16022     16025     16017     16016     16019     16020
     16017     16016     16019     16021     16017     16016     16019     16022
     16018     16016     16019     16020     16018     16016     16019     16021
     16018     16016     16019     16022     16019     16022     16025     16026
     16019     16022     16025     16027     16019     16022     16025     16028
     16020     16019     16022     16023     16020     16019     16022     16024
     16020     16019     16022     16025     16021     16019     16022     16023
     16021     16019     16022     16024     16021     16019     16022     16025
     16022     16025     16028     16029     16022     16025     16028     16030
     16022     16025     16028     16031     16023     16022     16025     16026
     16023     16022     16025     16027     16023     16022     16025     16028
     16024     16022     16025     16026     16024     16022     16025     16027
     16024     16022     16025     16028     16025     16028     16031     16032
     16025     16028     16031     16033     16025     16028     16031     16034
     16026     16025     16028     16029     16026     16025     16028     16030
     16026     16025     16028     16031     16027     16025     16028     16029
     16027     16025     16028     16030     16027     16025     16028     16031
     16028     16031     16034     16035     16028     16031     16034     16036
     16028     16031     16034     16037     16029     16028     16031     16032
     16029     16028     16031     16033     16029     16028     16031     16034
     16030     16028     16031     16032     16030     16028     16031     16033
     16030     16028     16031     16034     16031     16034     16037     16038
     16031     16034     16037     16039     16031     16034     16037     16040
     16032     16031     16034     16035     16032     16031     16034     16036
     16032     16031     16034     16037     16033     16031     16034     16035
     16033     16031     16034     16036     16033     16031     16034     16037
     16034     16037     16040     16041     16034     16037     16040     16042
     16034     16037     16040     16043     16035     16034     16037     16038
     16035     16034     16037     16039     16035     16034     16037     16040
     16036     16034     16037     16038     16036     16034     16037     16039
     16036     16034     16037     16040     16037     16040     16043     16044
     16037     16040     16043     16045     16037     16040     16043     16046
     16038     16037     16040     16041     16038     16037     16040     16042
     16038     16037     16040     16043     16039     16037     16040     16041
     16039     16037     16040     16042     16039     16037     16040     16043
     16041     16040     16043     16044     16041     16040     16043     16045
     16041     16040     16043     16046     16042     16040     16043     16044
     16042     16040     16043     16045     16042     16040     16043     16046
     16047     16048     16063     16064     16047     16048     16063     16065
     16047     16048     16063     16069     16048     16047     16051     16052
     16048     16047     16051     16053     16048     16047     16051     16054
     16048     16047     16055     16056     16048     16047     16055     16057
     16048     16047     16055     16058     16048     16047     16059     16060
     16048     16047     16059     16061     16048     16047     16059     16062
     16048     16063     16069     16066     16049     16048     16047     16051
     16049     16048     16047     16055     16049     16048     16047     16059
     16049     16048     16063     16064     16049     16048     16063     16065
     16049     16048     16063     16069     16050     16048     16047     16051
     16050     16048     16047     16055     16050     16048     16047     16059
     16050     16048     16063     16064     16050     16048     16063     16065
     16050     16048     16063     16069     16051     16047     16048     16063
     16051     16047     16055     16056     16051     16047     16055     16057
     16051     16047     16055     16058     16051     16047     16059     16060
     16051     16047     16059     16061     16051     16047     16059     16062
     16052     16051     16047     16055     16052     16051     16047     16059
     16053     16051     16047     16055     16053     16051     16047     16059
     16054     16051     16047     16055     16054     16051     16047     16059
     16055     16047     16048     16063     16055     16047     16059     16060
     16055     16047     16059     16061     16055     16047     16059     16062
     16056     16055     16047     16059     16057     16055     16047     16059
     16058     16055     16047     16059     16059     16047     16048     16063
     16063     16069     16066     16067     16063     16069     16066     16068
     16063     16069     16066     16070     16064     16063     16069     16066
     16065     16063     16069     16066     16066     16070     16071     16072
     16066     16070     16071     16073     16066     16070     16071     16074
     16067     16066     16070     16071     16068     16066     16070     16071
     16069     16066     16070     16071     16070     16071     16074     16075
     16070     16071     16074     16076     16070     16071     16074     16082
     16071     16074     16076     16077     16071     16074     16082     16083
     16071     16074     16082     16084     16071     16074     16082     16085
     16072     16071     16074     16075     16072     16071     16074     16076
     16072     16071     16074     16082     16073     16071     16074     16075
     16073     16071     16074     16076     16073     16071     16074     16082
     16074     16076     16077     16078     16074     16076     16077     16079
     16074     16082     16085     16086     16075     16074     16076     16077
     16075     16074     16082     16083     16075     16074     16082     16084
     16075     16074     16082     16085     16076     16074     16082     16083
     16076     16074     16082     16084     16076     16074     16082     16085
     16076     16077     16079     16080     16076     16077     16079     16081
     16076     16077     16079     16091     16077     16076     16074     16082
     16077     16079     16091     16092     16077     16079     16091     16093
     16077     16079     16091     16094     16078     16077     16079     16080
     16078     16077     16079     16081     16078     16077     16079     16091
     16079     16091     16094     16095     16079     16091     16094     16096
     16079     16091     16094     16097     16080     16079     16091     16092
     16080     16079     16091     16093     16080     16079     16091     16094
     16081     16079     16091     16092     16081     16079     16091     16093
     16081     16079     16091     16094     16082     16085     16086     16087
     16082     16085     16086     16088     16083     16082     16085     16086
     16084     16082     16085     16086     16085     16086     16088     16089
     16085     16086     16088     16090     16085     16086     16088     16138
     16086     16088     16138     16139     16086     16088     16138     16140
     16086     16088     16138     16141     16087     16086     16088     16089
     16087     16086     16088     16090     16087     16086     16088     16138
     16088     16138     16141     16142     16088     16138     16141     16143
     16088     16138     16141     16144     16089     16088     16138     16139
     16089     16088     16138     16140     16089     16088     16138     16141
     16090     16088     16138     16139     16090     16088     16138     16140
     16090     16088     16138     16141     16091     16094     16097     16098
     16091     16094     16097     16099     16091     16094     16097     16100
     16092     16091     16094     16095     16092     16091     16094     16096
     16092     16091     16094     16097     16093     16091     16094     16095
     16093     16091     16094     16096     16093     16091     16094     16097
     16094     16097     16100     16101     16094     16097     16100     16102
     16094     16097     16100     16103     16095     16094     16097     16098
     16095     16094     16097     16099     16095     16094     16097     16100
     16096     16094     16097     16098     16096     16094     16097     16099
     16096     16094     16097     16100     16097     16100     16103     16104
     16097     16100     16103     16105     16097     16100     16103     16106
     16098     16097     16100     16101     16098     16097     16100     16102
     16098     16097     16100     16103     16099     16097     16100     16101
     16099     16097     16100     16102     16099     16097     16100     16103
     16100     16103     16106     16107     16100     16103     16106     16108
     16100     16103     16106     16109     16101     16100     16103     16104
     16101     16100     16103     16105     16101     16100     16103     16106
     16102     16100     16103     16104     16102     16100     16103     16105
     16102     16100     16103     16106     16103     16106     16109     16110
     16103     16106     16109     16111     16104     16103     16106     16107
     16104     16103     16106     16108     16104     16103     16106     16109
     16105     16103     16106     16107     16105     16103     16106     16108
     16105     16103     16106     16109     16106     16109     16111     16112
     16106     16109     16111     16113     16107     16106     16109     16110
     16107     16106     16109     16111     16108     16106     16109     16110
     16108     16106     16109     16111     16109     16111     16113     16114
     16109     16111     16113     16115     16109     16111     16113     16116
     16110     16109     16111     16112     16110     16109     16111     16113
     16111     16113     16116     16117     16111     16113     16116     16118
     16111     16113     16116     16119     16112     16111     16113     16114
     16112     16111     16113     16115     16112     16111     16113     16116
     16113     16116     16119     16120     16113     16116     16119     16121
     16113     16116     16119     16122     16114     16113     16116     16117
     16114     16113     16116     16118     16114     16113     16116     16119
     16115     16113     16116     16117     16115     16113     16116     16118
     16115     16113     16116     16119     16116     16119     16122     16123
     16116     16119     16122     16124     16116     16119     16122     16125
     16117     16116     16119     16120     16117     16116     16119     16121
     16117     16116     16119     16122     16118     16116     16119     16120
     16118     16116     16119     16121     16118     16116     16119     16122
     16119     16122     16125     16126     16119     16122     16125     16127
     16119     16122     16125     16128     16120     16119     16122     16123
     16120     16119     16122     16124     16120     16119     16122     16125
     16121     16119     16122     16123     16121     16119     16122     16124
     16121     16119     16122     16125     16122     16125     16128     16129
     16122     16125     16128     16130     16122     16125     16128     16131
     16123     16122     16125     16126     16123     16122     16125     16127
     16123     16122     16125     16128     16124     16122     16125     16126
     16124     16122     16125     16127     16124     16122     16125     16128
     16125     16128     16131     16132     16125     16128     16131     16133
     16125     16128     16131     16134     16126     16125     16128     16129
     16126     16125     16128     16130     16126     16125     16128     16131
     16127     16125     16128     16129     16127     16125     16128     16130
     16127     16125     16128     16131     16128     16131     16134     16135
     16128     16131     16134     16136     16128     16131     16134     16137
     16129     16128     16131     16132     16129     16128     16131     16133
     16129     16128     16131     16134     16130     16128     16131     16132
     16130     16128     16131     16133     16130     16128     16131     16134
     16132     16131     16134     16135     16132     16131     16134     16136
     16132     16131     16134     16137     16133     16131     16134     16135
     16133     16131     16134     16136     16133     16131     16134     16137
     16138     16141     16144     16145     16138     16141     16144     16146
     16138     16141     16144     16147     16139     16138     16141     16142
     16139     16138     16141     16143     16139     16138     16141     16144
     16140     16138     16141     16142     16140     16138     16141     16143
     16140     16138     16141     16144     16141     16144     16147     16148
     16141     16144     16147     16149     16141     16144     16147     16150
     16142     16141     16144     16145     16142     16141     16144     16146
     16142     16141     16144     16147     16143     16141     16144     16145
     16143     16141     16144     16146     16143     16141     16144     16147
     16144     16147     16150     16151     16144     16147     16150     16152
     16144     16147     16150     16153     16145     16144     16147     16148
     16145     16144     16147     16149     16145     16144     16147     16150
     16146     16144     16147     16148     16146     16144     16147     16149
     16146     16144     16147     16150     16147     16150     16153     16154
     16147     16150     16153     16155     16147     16150     16153     16156
     16148     16147     16150     16151     16148     16147     16150     16152
     16148     16147     16150     16153     16149     16147     16150     16151
     16149     16147     16150     16152     16149     16147     16150     16153
     16150     16153     16156     16157     16150     16153     16156     16158
     16150     16153     16156     16159     16151     16150     16153     16154
     16151     16150     16153     16155     16151     16150     16153     16156
     16152     16150     16153     16154     16152     16150     16153     16155
     16152     16150     16153     16156     16153     16156     16159     16160
     16153     16156     16159     16161     16153     16156     16159     16162
     16154     16153     16156     16157     16154     16153     16156     16158
     16154     16153     16156     16159     16155     16153     16156     16157
     16155     16153     16156     16158     16155     16153     16156     16159
     16156     16159     16162     16163     16156     16159     16162     16164
     16156     16159     16162     16165     16157     16156     16159     16160
     16157     16156     16159     16161     16157     16156     16159     16162
     16158     16156     16159     16160     16158     16156     16159     16161
     16158     16156     16159     16162     16159     16162     16165     16166
     16159     16162     16165     16167     16159     16162     16165     16168
     16160     16159     16162     16163     16160     16159     16162     16164
     16160     16159     16162     16165     16161     16159     16162     16163
     16161     16159     16162     16164     16161     16159     16162     16165
     16162     16165     16168     16169     16162     16165     16168     16170
     16162     16165     16168     16171     16163     16162     16165     16166
     16163     16162     16165     16167     16163     16162     16165     16168
     16164     16162     16165     16166     16164     16162     16165     16167
     16164     16162     16165     16168     16165     16168     16171     16172
     16165     16168     16171     16173     16165     16168     16171     16174
     16166     16165     16168     16169     16166     16165     16168     16170
     16166     16165     16168     16171     16167     16165     16168     16169
     16167     16165     16168     16170     16167     16165     16168     16171
     16168     16171     16174     16175     16168     16171     16174     16176
     16168     16171     16174     16177     16169     16168     16171     16172
     16169     16168     16171     16173     16169     16168     16171     16174
     16170     16168     16171     16172     16170     16168     16171     16173
     16170     16168     16171     16174     16171     16174     16177     16178
     16171     16174     16177     16179     16171     16174     16177     16180
     16172     16171     16174     16175     16172     16171     16174     16176
     16172     16171     16174     16177     16173     16171     16174     16175
     16173     16171     16174     16176     16173     16171     16174     16177
     16175     16174     16177     16178     16175     16174     16177     16179
     16175     16174     16177     16180     16176     16174     16177     16178
     16176     16174     16177     16179     16176     16174     16177     16180
     16181     16185     16187     16188     16181     16185     16187     16189
     16181     16185     16190     16191     16181     16185     16190     16192
     16181     16185     16190     16196     16182     16181     16185     16186
     16182     16181     16185     16187     16182     16181     16185     16190
     16183     16181     16185     16186     16183     16181     16185     16187
     16183     16181     16185     16190     16184     16181     16185     16186
     16184     16181     16185     16187     16184     16181     16185     16190
     16185     16190     16196     16193     16186     16185     16187     16188
     16186     16185     16187     16189     16186     16185     16190     16191
     16186     16185     16190     16192     16186     16185     16190     16196
     16187     16185     16190     16191     16187     16185     16190     16192
     16187     16185     16190     16196     16188     16187     16185     16190
     16189     16187     16185     16190     16190     16196     16193     16194
     16190     16196     16193     16195     16190     16196     16193     16197
     16191     16190     16196     16193     16192     16190     16196     16193
     16193     16197     16198     16199     16193     16197     16198     16200
     16193     16197     16198     16201     16194     16193     16197     16198
     16195     16193     16197     16198     16196     16193     16197     16198
     16197     16198     16201     16202     16197     16198     16201     16203
     16197     16198     16201     16209     16198     16201     16203     16204
     16198     16201     16209     16210     16198     16201     16209     16211
     16198     16201     16209     16212     16199     16198     16201     16202
     16199     16198     16201     16203     16199     16198     16201     16209
     16200     16198     16201     16202     16200     16198     16201     16203
     16200     16198     16201     16209     16201     16203     16204     16205
     16201     16203     16204     16206     16201     16209     16212     16213
     16202     16201     16203     16204     16202     16201     16209     16210
     16202     16201     16209     16211     16202     16201     16209     16212
     16203     16201     16209     16210     16203     16201     16209     16211
     16203     16201     16209     16212     16203     16204     16206     16207
     16203     16204     16206     16208     16203     16204     16206     16218
     16204     16203     16201     16209     16204     16206     16218     16219
     16204     16206     16218     16220     16204     16206     16218     16221
     16205     16204     16206     16207     16205     16204     16206     16208
     16205     16204     16206     16218     16206     16218     16221     16222
     16206     16218     16221     16223     16206     16218     16221     16224
     16207     16206     16218     16219     16207     16206     16218     16220
     16207     16206     16218     16221     16208     16206     16218     16219
     16208     16206     16218     16220     16208     16206     16218     16221
     16209     16212     16213     16214     16209     16212     16213     16215
     16210     16209     16212     16213     16211     16209     16212     16213
     16212     16213     16215     16216     16212     16213     16215     16217
     16212     16213     16215     16265     16213     16215     16265     16266
     16213     16215     16265     16267     16213     16215     16265     16268
     16214     16213     16215     16216     16214     16213     16215     16217
     16214     16213     16215     16265     16215     16265     16268     16269
     16215     16265     16268     16270     16215     16265     16268     16271
     16216     16215     16265     16266     16216     16215     16265     16267
     16216     16215     16265     16268     16217     16215     16265     16266
     16217     16215     16265     16267     16217     16215     16265     16268
     16218     16221     16224     16225     16218     16221     16224     16226
     16218     16221     16224     16227     16219     16218     16221     16222
     16219     16218     16221     16223     16219     16218     16221     16224
     16220     16218     16221     16222     16220     16218     16221     16223
     16220     16218     16221     16224     16221     16224     16227     16228
     16221     16224     16227     16229     16221     16224     16227     16230
     16222     16221     16224     16225     16222     16221     16224     16226
     16222     16221     16224     16227     16223     16221     16224     16225
     16223     16221     16224     16226     16223     16221     16224     16227
     16224     16227     16230     16231     16224     16227     16230     16232
     16224     16227     16230     16233     16225     16224     16227     16228
     16225     16224     16227     16229     16225     16224     16227     16230
     16226     16224     16227     16228     16226     16224     16227     16229
     16226     16224     16227     16230     16227     16230     16233     16234
     16227     16230     16233     16235     16227     16230     16233     16236
     16228     16227     16230     16231     16228     16227     16230     16232
     16228     16227     16230     16233     16229     16227     16230     16231
     16229     16227     16230     16232     16229     16227     16230     16233
     16230     16233     16236     16237     16230     16233     16236     16238
     16231     16230     16233     16234     16231     16230     16233     16235
     16231     16230     16233     16236     16232     16230     16233     16234
     16232     16230     16233     16235     16232     16230     16233     16236
     16233     16236     16238     16239     16233     16236     16238     16240
     16234     16233     16236     16237     16234     16233     16236     16238
     16235     16233     16236     16237     16235     16233     16236     16238
     16236     16238     16240     16241     16236     16238     16240     16242
     16236     16238     16240     16243     16237     16236     16238     16239
     16237     16236     16238     16240     16238     16240     16243     16244
     16238     16240     16243     16245     16238     16240     16243     16246
     16239     16238     16240     16241     16239     16238     16240     16242
     16239     16238     16240     16243     16240     16243     16246     16247
     16240     16243     16246     16248     16240     16243     16246     16249
     16241     16240     16243     16244     16241     16240     16243     16245
     16241     16240     16243     16246     16242     16240     16243     16244
     16242     16240     16243     16245     16242     16240     16243     16246
     16243     16246     16249     16250     16243     16246     16249     16251
     16243     16246     16249     16252     16244     16243     16246     16247
     16244     16243     16246     16248     16244     16243     16246     16249
     16245     16243     16246     16247     16245     16243     16246     16248
     16245     16243     16246     16249     16246     16249     16252     16253
     16246     16249     16252     16254     16246     16249     16252     16255
     16247     16246     16249     16250     16247     16246     16249     16251
     16247     16246     16249     16252     16248     16246     16249     16250
     16248     16246     16249     16251     16248     16246     16249     16252
     16249     16252     16255     16256     16249     16252     16255     16257
     16249     16252     16255     16258     16250     16249     16252     16253
     16250     16249     16252     16254     16250     16249     16252     16255
     16251     16249     16252     16253     16251     16249     16252     16254
     16251     16249     16252     16255     16252     16255     16258     16259
     16252     16255     16258     16260     16252     16255     16258     16261
     16253     16252     16255     16256     16253     16252     16255     16257
     16253     16252     16255     16258     16254     16252     16255     16256
     16254     16252     16255     16257     16254     16252     16255     16258
     16255     16258     16261     16262     16255     16258     16261     16263
     16255     16258     16261     16264     16256     16255     16258     16259
     16256     16255     16258     16260     16256     16255     16258     16261
     16257     16255     16258     16259     16257     16255     16258     16260
     16257     16255     16258     16261     16259     16258     16261     16262
     16259     16258     16261     16263     16259     16258     16261     16264
     16260     16258     16261     16262     16260     16258     16261     16263
     16260     16258     16261     16264     16265     16268     16271     16272
     16265     16268     16271     16273     16265     16268     16271     16274
     16266     16265     16268     16269     16266     16265     16268     16270
     16266     16265     16268     16271     16267     16265     16268     16269
     16267     16265     16268     16270     16267     16265     16268     16271
     16268     16271     16274     16275     16268     16271     16274     16276
     16268     16271     16274     16277     16269     16268     16271     16272
     16269     16268     16271     16273     16269     16268     16271     16274
     16270     16268     16271     16272     16270     16268     16271     16273
     16270     16268     16271     16274     16271     16274     16277     16278
     16271     16274     16277     16279     16271     16274     16277     16280
     16272     16271     16274     16275     16272     16271     16274     16276
     16272     16271     16274     16277     16273     16271     16274     16275
     16273     16271     16274     16276     16273     16271     16274     16277
     16274     16277     16280     16281     16274     16277     16280     16282
     16274     16277     16280     16283     16275     16274     16277     16278
     16275     16274     16277     16279     16275     16274     16277     16280
     16276     16274     16277     16278     16276     16274     16277     16279
     16276     16274     16277     16280     16277     16280     16283     16284
     16277     16280     16283     16285     16277     16280     16283     16286
     16278     16277     16280     16281     16278     16277     16280     16282
     16278     16277     16280     16283     16279     16277     16280     16281
     16279     16277     16280     16282     16279     16277     16280     16283
     16280     16283     16286     16287     16280     16283     16286     16288
     16280     16283     16286     16289     16281     16280     16283     16284
     16281     16280     16283     16285     16281     16280     16283     16286
     16282     16280     16283     16284     16282     16280     16283     16285
     16282     16280     16283     16286     16283     16286     16289     16290
     16283     16286     16289     16291     16283     16286     16289     16292
     16284     16283     16286     16287     16284     16283     16286     16288
     16284     16283     16286     16289     16285     16283     16286     16287
     16285     16283     16286     16288     16285     16283     16286     16289
     16286     16289     16292     16293     16286     16289     16292     16294
     16286     16289     16292     16295     16287     16286     16289     16290
     16287     16286     16289     16291     16287     16286     16289     16292
     16288     16286     16289     16290     16288     16286     16289     16291
     16288     16286     16289     16292     16289     16292     16295     16296
     16289     16292     16295     16297     16289     16292     16295     16298
     16290     16289     16292     16293     16290     16289     16292     16294
     16290     16289     16292     16295     16291     16289     16292     16293
     16291     16289     16292     16294     16291     16289     16292     16295
     16292     16295     16298     16299     16292     16295     16298     16300
     16292     16295     16298     16301     16293     16292     16295     16296
     16293     16292     16295     16297     16293     16292     16295     16298
     16294     16292     16295     16296     16294     16292     16295     16297
     16294     16292     16295     16298     16295     16298     16301     16302
     16295     16298     16301     16303     16295     16298     16301     16304
     16296     16295     16298     16299     16296     16295     16298     16300
     16296     16295     16298     16301     16297     16295     16298     16299
     16297     16295     16298     16300     16297     16295     16298     16301
     16298     16301     16304     16305     16298     16301     16304     16306
     16298     16301     16304     16307     16299     16298     16301     16302
     16299     16298     16301     16303     16299     16298     16301     16304
     16300     16298     16301     16302     16300     16298     16301     16303
     16300     16298     16301     16304     16302     16301     16304     16305
     16302     16301     16304     16306     16302     16301     16304     16307
     16303     16301     16304     16305     16303     16301     16304     16306
     16303     16301     16304     16307     16308     16309     16324     16325
     16308     16309     16324     16326     16308     16309     16324     16330
     16309     16308     16312     16313     16309     16308     16312     16314
     16309     16308     16312     16315     16309     16308     16316     16317
     16309     16308     16316     16318     16309     16308     16316     16319
     16309     16308     16320     16321     16309     16308     16320     16322
     16309     16308     16320     16323     16309     16324     16330     16327
     16310     16309     16308     16312     16310     16309     16308     16316
     16310     16309     16308     16320     16310     16309     16324     16325
     16310     16309     16324     16326     16310     16309     16324     16330
     16311     16309     16308     16312     16311     16309     16308     16316
     16311     16309     16308     16320     16311     16309     16324     16325
     16311     16309     16324     16326     16311     16309     16324     16330
     16312     16308     16309     16324     16312     16308     16316     16317
     16312     16308     16316     16318     16312     16308     16316     16319
     16312     16308     16320     16321     16312     16308     16320     16322
     16312     16308     16320     16323     16313     16312     16308     16316
     16313     16312     16308     16320     16314     16312     16308     16316
     16314     16312     16308     16320     16315     16312     16308     16316
     16315     16312     16308     16320     16316     16308     16309     16324
     16316     16308     16320     16321     16316     16308     16320     16322
     16316     16308     16320     16323     16317     16316     16308     16320
     16318     16316     16308     16320     16319     16316     16308     16320
     16320     16308     16309     16324     16324     16330     16327     16328
     16324     16330     16327     16329     16324     16330     16327     16331
     16325     16324     16330     16327     16326     16324     16330     16327
     16327     16331     16332     16333     16327     16331     16332     16334
     16327     16331     16332     16335     16328     16327     16331     16332
     16329     16327     16331     16332     16330     16327     16331     16332
     16331     16332     16335     16336     16331     16332     16335     16337
     16331     16332     16335     16343     16332     16335     16337     16338
     16332     16335     16343     16344     16332     16335     16343     16345
     16332     16335     16343     16346     16333     16332     16335     16336
     16333     16332     16335     16337     16333     16332     16335     16343
     16334     16332     16335     16336     16334     16332     16335     16337
     16334     16332     16335     16343     16335     16337     16338     16339
     16335     16337     16338     16340     16335     16343     16346     16347
     16336     16335     16337     16338     16336     16335     16343     16344
     16336     16335     16343     16345     16336     16335     16343     16346
     16337     16335     16343     16344     16337     16335     16343     16345
     16337     16335     16343     16346     16337     16338     16340     16341
     16337     16338     16340     16342     16337     16338     16340     16352
     16338     16337     16335     16343     16338     16340     16352     16353
     16338     16340     16352     16354     16338     16340     16352     16355
     16339     16338     16340     16341     16339     16338     16340     16342
     16339     16338     16340     16352     16340     16352     16355     16356
     16340     16352     16355     16357     16340     16352     16355     16358
     16341     16340     16352     16353     16341     16340     16352     16354
     16341     16340     16352     16355     16342     16340     16352     16353
     16342     16340     16352     16354     16342     16340     16352     16355
     16343     16346     16347     16348     16343     16346     16347     16349
     16344     16343     16346     16347     16345     16343     16346     16347
     16346     16347     16349     16350     16346     16347     16349     16351
     16346     16347     16349     16399     16347     16349     16399     16400
     16347     16349     16399     16401     16347     16349     16399     16402
     16348     16347     16349     16350     16348     16347     16349     16351
     16348     16347     16349     16399     16349     16399     16402     16403
     16349     16399     16402     16404     16349     16399     16402     16405
     16350     16349     16399     16400     16350     16349     16399     16401
     16350     16349     16399     16402     16351     16349     16399     16400
     16351     16349     16399     16401     16351     16349     16399     16402
     16352     16355     16358     16359     16352     16355     16358     16360
     16352     16355     16358     16361     16353     16352     16355     16356
     16353     16352     16355     16357     16353     16352     16355     16358
     16354     16352     16355     16356     16354     16352     16355     16357
     16354     16352     16355     16358     16355     16358     16361     16362
     16355     16358     16361     16363     16355     16358     16361     16364
     16356     16355     16358     16359     16356     16355     16358     16360
     16356     16355     16358     16361     16357     16355     16358     16359
     16357     16355     16358     16360     16357     16355     16358     16361
     16358     16361     16364     16365     16358     16361     16364     16366
     16358     16361     16364     16367     16359     16358     16361     16362
     16359     16358     16361     16363     16359     16358     16361     16364
     16360     16358     16361     16362     16360     16358     16361     16363
     16360     16358     16361     16364     16361     16364     16367     16368
     16361     16364     16367     16369     16361     16364     16367     16370
     16362     16361     16364     16365     16362     16361     16364     16366
     16362     16361     16364     16367     16363     16361     16364     16365
     16363     16361     16364     16366     16363     16361     16364     16367
     16364     16367     16370     16371     16364     16367     16370     16372
     16365     16364     16367     16368     16365     16364     16367     16369
     16365     16364     16367     16370     16366     16364     16367     16368
     16366     16364     16367     16369     16366     16364     16367     16370
     16367     16370     16372     16373     16367     16370     16372     16374
     16368     16367     16370     16371     16368     16367     16370     16372
     16369     16367     16370     16371     16369     16367     16370     16372
     16370     16372     16374     16375     16370     16372     16374     16376
     16370     16372     16374     16377     16371     16370     16372     16373
     16371     16370     16372     16374     16372     16374     16377     16378
     16372     16374     16377     16379     16372     16374     16377     16380
     16373     16372     16374     16375     16373     16372     16374     16376
     16373     16372     16374     16377     16374     16377     16380     16381
     16374     16377     16380     16382     16374     16377     16380     16383
     16375     16374     16377     16378     16375     16374     16377     16379
     16375     16374     16377     16380     16376     16374     16377     16378
     16376     16374     16377     16379     16376     16374     16377     16380
     16377     16380     16383     16384     16377     16380     16383     16385
     16377     16380     16383     16386     16378     16377     16380     16381
     16378     16377     16380     16382     16378     16377     16380     16383
     16379     16377     16380     16381     16379     16377     16380     16382
     16379     16377     16380     16383     16380     16383     16386     16387
     16380     16383     16386     16388     16380     16383     16386     16389
     16381     16380     16383     16384     16381     16380     16383     16385
     16381     16380     16383     16386     16382     16380     16383     16384
     16382     16380     16383     16385     16382     16380     16383     16386
     16383     16386     16389     16390     16383     16386     16389     16391
     16383     16386     16389     16392     16384     16383     16386     16387
     16384     16383     16386     16388     16384     16383     16386     16389
     16385     16383     16386     16387     16385     16383     16386     16388
     16385     16383     16386     16389     16386     16389     16392     16393
     16386     16389     16392     16394     16386     16389     16392     16395
     16387     16386     16389     16390     16387     16386     16389     16391
     16387     16386     16389     16392     16388     16386     16389     16390
     16388     16386     16389     16391     16388     16386     16389     16392
     16389     16392     16395     16396     16389     16392     16395     16397
     16389     16392     16395     16398     16390     16389     16392     16393
     16390     16389     16392     16394     16390     16389     16392     16395
     16391     16389     16392     16393     16391     16389     16392     16394
     16391     16389     16392     16395     16393     16392     16395     16396
     16393     16392     16395     16397     16393     16392     16395     16398
     16394     16392     16395     16396     16394     16392     16395     16397
     16394     16392     16395     16398     16399     16402     16405     16406
     16399     16402     16405     16407     16399     16402     16405     16408
     16400     16399     16402     16403     16400     16399     16402     16404
     16400     16399     16402     16405     16401     16399     16402     16403
     16401     16399     16402     16404     16401     16399     16402     16405
     16402     16405     16408     16409     16402     16405     16408     16410
     16402     16405     16408     16411     16403     16402     16405     16406
     16403     16402     16405     16407     16403     16402     16405     16408
     16404     16402     16405     16406     16404     16402     16405     16407
     16404     16402     16405     16408     16405     16408     16411     16412
     16405     16408     16411     16413     16405     16408     16411     16414
     16406     16405     16408     16409     16406     16405     16408     16410
     16406     16405     16408     16411     16407     16405     16408     16409
     16407     16405     16408     16410     16407     16405     16408     16411
     16408     16411     16414     16415     16408     16411     16414     16416
     16408     16411     16414     16417     16409     16408     16411     16412
     16409     16408     16411     16413     16409     16408     16411     16414
     16410     16408     16411     16412     16410     16408     16411     16413
     16410     16408     16411     16414     16411     16414     16417     16418
     16411     16414     16417     16419     16411     16414     16417     16420
     16412     16411     16414     16415     16412     16411     16414     16416
     16412     16411     16414     16417     16413     16411     16414     16415
     16413     16411     16414     16416     16413     16411     16414     16417
     16414     16417     16420     16421     16414     16417     16420     16422
     16414     16417     16420     16423     16415     16414     16417     16418
     16415     16414     16417     16419     16415     16414     16417     16420
     16416     16414     16417     16418     16416     16414     16417     16419
     16416     16414     16417     16420     16417     16420     16423     16424
     16417     16420     16423     16425     16417     16420     16423     16426
     16418     16417     16420     16421     16418     16417     16420     16422
     16418     16417     16420     16423     16419     16417     16420     16421
     16419     16417     16420     16422     16419     16417     16420     16423
     16420     16423     16426     16427     16420     16423     16426     16428
     16420     16423     16426     16429     16421     16420     16423     16424
     16421     16420     16423     16425     16421     16420     16423     16426
     16422     16420     16423     16424     16422     16420     16423     16425
     16422     16420     16423     16426     16423     16426     16429     16430
     16423     16426     16429     16431     16423     16426     16429     16432
     16424     16423     16426     16427     16424     16423     16426     16428
     16424     16423     16426     16429     16425     16423     16426     16427
     16425     16423     16426     16428     16425     16423     16426     16429
     16426     16429     16432     16433     16426     16429     16432     16434
     16426     16429     16432     16435     16427     16426     16429     16430
     16427     16426     16429     16431     16427     16426     16429     16432
     16428     16426     16429     16430     16428     16426     16429     16431
     16428     16426     16429     16432     16429     16432     16435     16436
     16429     16432     16435     16437     16429     16432     16435     16438
     16430     16429     16432     16433     16430     16429     16432     16434
     16430     16429     16432     16435     16431     16429     16432     16433
     16431     16429     16432     16434     16431     16429     16432     16435
     16432     16435     16438     16439     16432     16435     16438     16440
     16432     16435     16438     16441     16433     16432     16435     16436
     16433     16432     16435     16437     16433     16432     16435     16438
     16434     16432     16435     16436     16434     16432     16435     16437
     16434     16432     16435     16438     16436     16435     16438     16439
     16436     16435     16438     16440     16436     16435     16438     16441
     16437     16435     16438     16439     16437     16435     16438     16440
     16437     16435     16438     16441     16442     16443     16458     16459
     16442     16443     16458     16460     16442     16443     16458     16464
     16443     16442     16446     16447     16443     16442     16446     16448
     16443     16442     16446     16449     16443     16442     16450     16451
     16443     16442     16450     16452     16443     16442     16450     16453
     16443     16442     16454     16455     16443     16442     16454     16456
     16443     16442     16454     16457     16443     16458     16464     16461
     16444     16443     16442     16446     16444     16443     16442     16450
     16444     16443     16442     16454     16444     16443     16458     16459
     16444     16443     16458     16460     16444     16443     16458     16464
     16445     16443     16442     16446     16445     16443     16442     16450
     16445     16443     16442     16454     16445     16443     16458     16459
     16445     16443     16458     16460     16445     16443     16458     16464
     16446     16442     16443     16458     16446     16442     16450     16451
     16446     16442     16450     16452     16446     16442     16450     16453
     16446     16442     16454     16455     16446     16442     16454     16456
     16446     16442     16454     16457     16447     16446     16442     16450
     16447     16446     16442     16454     16448     16446     16442     16450
     16448     16446     16442     16454     16449     16446     16442     16450
     16449     16446     16442     16454     16450     16442     16443     16458
     16450     16442     16454     16455     16450     16442     16454     16456
     16450     16442     16454     16457     16451     16450     16442     16454
     16452     16450     16442     16454     16453     16450     16442     16454
     16454     16442     16443     16458     16458     16464     16461     16462
     16458     16464     16461     16463     16458     16464     16461     16465
     16459     16458     16464     16461     16460     16458     16464     16461
     16461     16465     16466     16467     16461     16465     16466     16468
     16461     16465     16466     16469     16462     16461     16465     16466
     16463     16461     16465     16466     16464     16461     16465     16466
     16465     16466     16469     16470     16465     16466     16469     16471
     16465     16466     16469     16477     16466     16469     16471     16472
     16466     16469     16477     16478     16466     16469     16477     16479
     16466     16469     16477     16480     16467     16466     16469     16470
     16467     16466     16469     16471     16467     16466     16469     16477
     16468     16466     16469     16470     16468     16466     16469     16471
     16468     16466     16469     16477     16469     16471     16472     16473
     16469     16471     16472     16474     16469     16477     16480     16481
     16470     16469     16471     16472     16470     16469     16477     16478
     16470     16469     16477     16479     16470     16469     16477     16480
     16471     16469     16477     16478     16471     16469     16477     16479
     16471     16469     16477     16480     16471     16472     16474     16475
     16471     16472     16474     16476     16471     16472     16474     16486
     16472     16471     16469     16477     16472     16474     16486     16487
     16472     16474     16486     16488     16472     16474     16486     16489
     16473     16472     16474     16475     16473     16472     16474     16476
     16473     16472     16474     16486     16474     16486     16489     16490
     16474     16486     16489     16491     16474     16486     16489     16492
     16475     16474     16486     16487     16475     16474     16486     16488
     16475     16474     16486     16489     16476     16474     16486     16487
     16476     16474     16486     16488     16476     16474     16486     16489
     16477     16480     16481     16482     16477     16480     16481     16483
     16478     16477     16480     16481     16479     16477     16480     16481
     16480     16481     16483     16484     16480     16481     16483     16485
     16480     16481     16483     16533     16481     16483     16533     16534
     16481     16483     16533     16535     16481     16483     16533     16536
     16482     16481     16483     16484     16482     16481     16483     16485
     16482     16481     16483     16533     16483     16533     16536     16537
     16483     16533     16536     16538     16483     16533     16536     16539
     16484     16483     16533     16534     16484     16483     16533     16535
     16484     16483     16533     16536     16485     16483     16533     16534
     16485     16483     16533     16535     16485     16483     16533     16536
     16486     16489     16492     16493     16486     16489     16492     16494
     16486     16489     16492     16495     16487     16486     16489     16490
     16487     16486     16489     16491     16487     16486     16489     16492
     16488     16486     16489     16490     16488     16486     16489     16491
     16488     16486     16489     16492     16489     16492     16495     16496
     16489     16492     16495     16497     16489     16492     16495     16498
     16490     16489     16492     16493     16490     16489     16492     16494
     16490     16489     16492     16495     16491     16489     16492     16493
     16491     16489     16492     16494     16491     16489     16492     16495
     16492     16495     16498     16499     16492     16495     16498     16500
     16492     16495     16498     16501     16493     16492     16495     16496
     16493     16492     16495     16497     16493     16492     16495     16498
     16494     16492     16495     16496     16494     16492     16495     16497
     16494     16492     16495     16498     16495     16498     16501     16502
     16495     16498     16501     16503     16495     16498     16501     16504
     16496     16495     16498     16499     16496     16495     16498     16500
     16496     16495     16498     16501     16497     16495     16498     16499
     16497     16495     16498     16500     16497     16495     16498     16501
     16498     16501     16504     16505     16498     16501     16504     16506
     16499     16498     16501     16502     16499     16498     16501     16503
     16499     16498     16501     16504     16500     16498     16501     16502
     16500     16498     16501     16503     16500     16498     16501     16504
     16501     16504     16506     16507     16501     16504     16506     16508
     16502     16501     16504     16505     16502     16501     16504     16506
     16503     16501     16504     16505     16503     16501     16504     16506
     16504     16506     16508     16509     16504     16506     16508     16510
     16504     16506     16508     16511     16505     16504     16506     16507
     16505     16504     16506     16508     16506     16508     16511     16512
     16506     16508     16511     16513     16506     16508     16511     16514
     16507     16506     16508     16509     16507     16506     16508     16510
     16507     16506     16508     16511     16508     16511     16514     16515
     16508     16511     16514     16516     16508     16511     16514     16517
     16509     16508     16511     16512     16509     16508     16511     16513
     16509     16508     16511     16514     16510     16508     16511     16512
     16510     16508     16511     16513     16510     16508     16511     16514
     16511     16514     16517     16518     16511     16514     16517     16519
     16511     16514     16517     16520     16512     16511     16514     16515
     16512     16511     16514     16516     16512     16511     16514     16517
     16513     16511     16514     16515     16513     16511     16514     16516
     16513     16511     16514     16517     16514     16517     16520     16521
     16514     16517     16520     16522     16514     16517     16520     16523
     16515     16514     16517     16518     16515     16514     16517     16519
     16515     16514     16517     16520     16516     16514     16517     16518
     16516     16514     16517     16519     16516     16514     16517     16520
     16517     16520     16523     16524     16517     16520     16523     16525
     16517     16520     16523     16526     16518     16517     16520     16521
     16518     16517     16520     16522     16518     16517     16520     16523
     16519     16517     16520     16521     16519     16517     16520     16522
     16519     16517     16520     16523     16520     16523     16526     16527
     16520     16523     16526     16528     16520     16523     16526     16529
     16521     16520     16523     16524     16521     16520     16523     16525
     16521     16520     16523     16526     16522     16520     16523     16524
     16522     16520     16523     16525     16522     16520     16523     16526
     16523     16526     16529     16530     16523     16526     16529     16531
     16523     16526     16529     16532     16524     16523     16526     16527
     16524     16523     16526     16528     16524     16523     16526     16529
     16525     16523     16526     16527     16525     16523     16526     16528
     16525     16523     16526     16529     16527     16526     16529     16530
     16527     16526     16529     16531     16527     16526     16529     16532
     16528     16526     16529     16530     16528     16526     16529     16531
     16528     16526     16529     16532     16533     16536     16539     16540
     16533     16536     16539     16541     16533     16536     16539     16542
     16534     16533     16536     16537     16534     16533     16536     16538
     16534     16533     16536     16539     16535     16533     16536     16537
     16535     16533     16536     16538     16535     16533     16536     16539
     16536     16539     16542     16543     16536     16539     16542     16544
     16536     16539     16542     16545     16537     16536     16539     16540
     16537     16536     16539     16541     16537     16536     16539     16542
     16538     16536     16539     16540     16538     16536     16539     16541
     16538     16536     16539     16542     16539     16542     16545     16546
     16539     16542     16545     16547     16539     16542     16545     16548
     16540     16539     16542     16543     16540     16539     16542     16544
     16540     16539     16542     16545     16541     16539     16542     16543
     16541     16539     16542     16544     16541     16539     16542     16545
     16542     16545     16548     16549     16542     16545     16548     16550
     16542     16545     16548     16551     16543     16542     16545     16546
     16543     16542     16545     16547     16543     16542     16545     16548
     16544     16542     16545     16546     16544     16542     16545     16547
     16544     16542     16545     16548     16545     16548     16551     16552
     16545     16548     16551     16553     16545     16548     16551     16554
     16546     16545     16548     16549     16546     16545     16548     16550
     16546     16545     16548     16551     16547     16545     16548     16549
     16547     16545     16548     16550     16547     16545     16548     16551
     16548     16551     16554     16555     16548     16551     16554     16556
     16548     16551     16554     16557     16549     16548     16551     16552
     16549     16548     16551     16553     16549     16548     16551     16554
     16550     16548     16551     16552     16550     16548     16551     16553
     16550     16548     16551     16554     16551     16554     16557     16558
     16551     16554     16557     16559     16551     16554     16557     16560
     16552     16551     16554     16555     16552     16551     16554     16556
     16552     16551     16554     16557     16553     16551     16554     16555
     16553     16551     16554     16556     16553     16551     16554     16557
     16554     16557     16560     16561     16554     16557     16560     16562
     16554     16557     16560     16563     16555     16554     16557     16558
     16555     16554     16557     16559     16555     16554     16557     16560
     16556     16554     16557     16558     16556     16554     16557     16559
     16556     16554     16557     16560     16557     16560     16563     16564
     16557     16560     16563     16565     16557     16560     16563     16566
     16558     16557     16560     16561     16558     16557     16560     16562
     16558     16557     16560     16563     16559     16557     16560     16561
     16559     16557     16560     16562     16559     16557     16560     16563
     16560     16563     16566     16567     16560     16563     16566     16568
     16560     16563     16566     16569     16561     16560     16563     16564
     16561     16560     16563     16565     16561     16560     16563     16566
     16562     16560     16563     16564     16562     16560     16563     16565
     16562     16560     16563     16566     16563     16566     16569     16570
     16563     16566     16569     16571     16563     16566     16569     16572
     16564     16563     16566     16567     16564     16563     16566     16568
     16564     16563     16566     16569     16565     16563     16566     16567
     16565     16563     16566     16568     16565     16563     16566     16569
     16566     16569     16572     16573     16566     16569     16572     16574
     16566     16569     16572     16575     16567     16566     16569     16570
     16567     16566     16569     16571     16567     16566     16569     16572
     16568     16566     16569     16570     16568     16566     16569     16571
     16568     16566     16569     16572     16570     16569     16572     16573
     16570     16569     16572     16574     16570     16569     16572     16575
     16571     16569     16572     16573     16571     16569     16572     16574
     16571     16569     16572     16575     16576     16580     16582     16583
     16576     16580     16582     16584     16576     16580     16585     16586
     16576     16580     16585     16587     16576     16580     16585     16591
     16577     16576     16580     16581     16577     16576     16580     16582
     16577     16576     16580     16585     16578     16576     16580     16581
     16578     16576     16580     16582     16578     16576     16580     16585
     16579     16576     16580     16581     16579     16576     16580     16582
     16579     16576     16580     16585     16580     16585     16591     16588
     16581     16580     16582     16583     16581     16580     16582     16584
     16581     16580     16585     16586     16581     16580     16585     16587
     16581     16580     16585     16591     16582     16580     16585     16586
     16582     16580     16585     16587     16582     16580     16585     16591
     16583     16582     16580     16585     16584     16582     16580     16585
     16585     16591     16588     16589     16585     16591     16588     16590
     16585     16591     16588     16592     16586     16585     16591     16588
     16587     16585     16591     16588     16588     16592     16593     16594
     16588     16592     16593     16595     16588     16592     16593     16596
     16589     16588     16592     16593     16590     16588     16592     16593
     16591     16588     16592     16593     16592     16593     16596     16597
     16592     16593     16596     16598     16592     16593     16596     16604
     16593     16596     16598     16599     16593     16596     16604     16605
     16593     16596     16604     16606     16593     16596     16604     16607
     16594     16593     16596     16597     16594     16593     16596     16598
     16594     16593     16596     16604     16595     16593     16596     16597
     16595     16593     16596     16598     16595     16593     16596     16604
     16596     16598     16599     16600     16596     16598     16599     16601
     16596     16604     16607     16608     16597     16596     16598     16599
     16597     16596     16604     16605     16597     16596     16604     16606
     16597     16596     16604     16607     16598     16596     16604     16605
     16598     16596     16604     16606     16598     16596     16604     16607
     16598     16599     16601     16602     16598     16599     16601     16603
     16598     16599     16601     16613     16599     16598     16596     16604
     16599     16601     16613     16614     16599     16601     16613     16615
     16599     16601     16613     16616     16600     16599     16601     16602
     16600     16599     16601     16603     16600     16599     16601     16613
     16601     16613     16616     16617     16601     16613     16616     16618
     16601     16613     16616     16619     16602     16601     16613     16614
     16602     16601     16613     16615     16602     16601     16613     16616
     16603     16601     16613     16614     16603     16601     16613     16615
     16603     16601     16613     16616     16604     16607     16608     16609
     16604     16607     16608     16610     16605     16604     16607     16608
     16606     16604     16607     16608     16607     16608     16610     16611
     16607     16608     16610     16612     16607     16608     16610     16660
     16608     16610     16660     16661     16608     16610     16660     16662
     16608     16610     16660     16663     16609     16608     16610     16611
     16609     16608     16610     16612     16609     16608     16610     16660
     16610     16660     16663     16664     16610     16660     16663     16665
     16610     16660     16663     16666     16611     16610     16660     16661
     16611     16610     16660     16662     16611     16610     16660     16663
     16612     16610     16660     16661     16612     16610     16660     16662
     16612     16610     16660     16663     16613     16616     16619     16620
     16613     16616     16619     16621     16613     16616     16619     16622
     16614     16613     16616     16617     16614     16613     16616     16618
     16614     16613     16616     16619     16615     16613     16616     16617
     16615     16613     16616     16618     16615     16613     16616     16619
     16616     16619     16622     16623     16616     16619     16622     16624
     16616     16619     16622     16625     16617     16616     16619     16620
     16617     16616     16619     16621     16617     16616     16619     16622
     16618     16616     16619     16620     16618     16616     16619     16621
     16618     16616     16619     16622     16619     16622     16625     16626
     16619     16622     16625     16627     16619     16622     16625     16628
     16620     16619     16622     16623     16620     16619     16622     16624
     16620     16619     16622     16625     16621     16619     16622     16623
     16621     16619     16622     16624     16621     16619     16622     16625
     16622     16625     16628     16629     16622     16625     16628     16630
     16622     16625     16628     16631     16623     16622     16625     16626
     16623     16622     16625     16627     16623     16622     16625     16628
     16624     16622     16625     16626     16624     16622     16625     16627
     16624     16622     16625     16628     16625     16628     16631     16632
     16625     16628     16631     16633     16626     16625     16628     16629
     16626     16625     16628     16630     16626     16625     16628     16631
     16627     16625     16628     16629     16627     16625     16628     16630
     16627     16625     16628     16631     16628     16631     16633     16634
     16628     16631     16633     16635     16629     16628     16631     16632
     16629     16628     16631     16633     16630     16628     16631     16632
     16630     16628     16631     16633     16631     16633     16635     16636
     16631     16633     16635     16637     16631     16633     16635     16638
     16632     16631     16633     16634     16632     16631     16633     16635
     16633     16635     16638     16639     16633     16635     16638     16640
     16633     16635     16638     16641     16634     16633     16635     16636
     16634     16633     16635     16637     16634     16633     16635     16638
     16635     16638     16641     16642     16635     16638     16641     16643
     16635     16638     16641     16644     16636     16635     16638     16639
     16636     16635     16638     16640     16636     16635     16638     16641
     16637     16635     16638     16639     16637     16635     16638     16640
     16637     16635     16638     16641     16638     16641     16644     16645
     16638     16641     16644     16646     16638     16641     16644     16647
     16639     16638     16641     16642     16639     16638     16641     16643
     16639     16638     16641     16644     16640     16638     16641     16642
     16640     16638     16641     16643     16640     16638     16641     16644
     16641     16644     16647     16648     16641     16644     16647     16649
     16641     16644     16647     16650     16642     16641     16644     16645
     16642     16641     16644     16646     16642     16641     16644     16647
     16643     16641     16644     16645     16643     16641     16644     16646
     16643     16641     16644     16647     16644     16647     16650     16651
     16644     16647     16650     16652     16644     16647     16650     16653
     16645     16644     16647     16648     16645     16644     16647     16649
     16645     16644     16647     16650     16646     16644     16647     16648
     16646     16644     16647     16649     16646     16644     16647     16650
     16647     16650     16653     16654     16647     16650     16653     16655
     16647     16650     16653     16656     16648     16647     16650     16651
     16648     16647     16650     16652     16648     16647     16650     16653
     16649     16647     16650     16651     16649     16647     16650     16652
     16649     16647     16650     16653     16650     16653     16656     16657
     16650     16653     16656     16658     16650     16653     16656     16659
     16651     16650     16653     16654     16651     16650     16653     16655
     16651     16650     16653     16656     16652     16650     16653     16654
     16652     16650     16653     16655     16652     16650     16653     16656
     16654     16653     16656     16657     16654     16653     16656     16658
     16654     16653     16656     16659     16655     16653     16656     16657
     16655     16653     16656     16658     16655     16653     16656     16659
     16660     16663     16666     16667     16660     16663     16666     16668
     16660     16663     16666     16669     16661     16660     16663     16664
     16661     16660     16663     16665     16661     16660     16663     16666
     16662     16660     16663     16664     16662     16660     16663     16665
     16662     16660     16663     16666     16663     16666     16669     16670
     16663     16666     16669     16671     16663     16666     16669     16672
     16664     16663     16666     16667     16664     16663     16666     16668
     16664     16663     16666     16669     16665     16663     16666     16667
     16665     16663     16666     16668     16665     16663     16666     16669
     16666     16669     16672     16673     16666     16669     16672     16674
     16666     16669     16672     16675     16667     16666     16669     16670
     16667     16666     16669     16671     16667     16666     16669     16672
     16668     16666     16669     16670     16668     16666     16669     16671
     16668     16666     16669     16672     16669     16672     16675     16676
     16669     16672     16675     16677     16669     16672     16675     16678
     16670     16669     16672     16673     16670     16669     16672     16674
     16670     16669     16672     16675     16671     16669     16672     16673
     16671     16669     16672     16674     16671     16669     16672     16675
     16672     16675     16678     16679     16672     16675     16678     16680
     16672     16675     16678     16681     16673     16672     16675     16676
     16673     16672     16675     16677     16673     16672     16675     16678
     16674     16672     16675     16676     16674     16672     16675     16677
     16674     16672     16675     16678     16675     16678     16681     16682
     16675     16678     16681     16683     16675     16678     16681     16684
     16676     16675     16678     16679     16676     16675     16678     16680
     16676     16675     16678     16681     16677     16675     16678     16679
     16677     16675     16678     16680     16677     16675     16678     16681
     16678     16681     16684     16685     16678     16681     16684     16686
     16678     16681     16684     16687     16679     16678     16681     16682
     16679     16678     16681     16683     16679     16678     16681     16684
     16680     16678     16681     16682     16680     16678     16681     16683
     16680     16678     16681     16684     16681     16684     16687     16688
     16681     16684     16687     16689     16681     16684     16687     16690
     16682     16681     16684     16685     16682     16681     16684     16686
     16682     16681     16684     16687     16683     16681     16684     16685
     16683     16681     16684     16686     16683     16681     16684     16687
     16684     16687     16690     16691     16684     16687     16690     16692
     16684     16687     16690     16693     16685     16684     16687     16688
     16685     16684     16687     16689     16685     16684     16687     16690
     16686     16684     16687     16688     16686     16684     16687     16689
     16686     16684     16687     16690     16687     16690     16693     16694
     16687     16690     16693     16695     16687     16690     16693     16696
     16688     16687     16690     16691     16688     16687     16690     16692
     16688     16687     16690     16693     16689     16687     16690     16691
     16689     16687     16690     16692     16689     16687     16690     16693
     16690     16693     16696     16697     16690     16693     16696     16698
     16690     16693     16696     16699     16691     16690     16693     16694
     16691     16690     16693     16695     16691     16690     16693     16696
     16692     16690     16693     16694     16692     16690     16693     16695
     16692     16690     16693     16696     16693     16696     16699     16700
     16693     16696     16699     16701     16693     16696     16699     16702
     16694     16693     16696     16697     16694     16693     16696     16698
     16694     16693     16696     16699     16695     16693     16696     16697
     16695     16693     16696     16698     16695     16693     16696     16699
     16697     16696     16699     16700     16697     16696     16699     16701
     16697     16696     16699     16702     16698     16696     16699     16700
     16698     16696     16699     16701     16698     16696     16699     16702
     16703     16704     16719     16720     16703     16704     16719     16721
     16703     16704     16719     16725     16704     16703     16707     16708
     16704     16703     16707     16709     16704     16703     16707     16710
     16704     16703     16711     16712     16704     16703     16711     16713
     16704     16703     16711     16714     16704     16703     16715     16716
     16704     16703     16715     16717     16704     16703     16715     16718
     16704     16719     16725     16722     16705     16704     16703     16707
     16705     16704     16703     16711     16705     16704     16703     16715
     16705     16704     16719     16720     16705     16704     16719     16721
     16705     16704     16719     16725     16706     16704     16703     16707
     16706     16704     16703     16711     16706     16704     16703     16715
     16706     16704     16719     16720     16706     16704     16719     16721
     16706     16704     16719     16725     16707     16703     16704     16719
     16707     16703     16711     16712     16707     16703     16711     16713
     16707     16703     16711     16714     16707     16703     16715     16716
     16707     16703     16715     16717     16707     16703     16715     16718
     16708     16707     16703     16711     16708     16707     16703     16715
     16709     16707     16703     16711     16709     16707     16703     16715
     16710     16707     16703     16711     16710     16707     16703     16715
     16711     16703     16704     16719     16711     16703     16715     16716
     16711     16703     16715     16717     16711     16703     16715     16718
     16712     16711     16703     16715     16713     16711     16703     16715
     16714     16711     16703     16715     16715     16703     16704     16719
     16719     16725     16722     16723     16719     16725     16722     16724
     16719     16725     16722     16726     16720     16719     16725     16722
     16721     16719     16725     16722     16722     16726     16727     16728
     16722     16726     16727     16729     16722     16726     16727     16730
     16723     16722     16726     16727     16724     16722     16726     16727
     16725     16722     16726     16727     16726     16727     16730     16731
     16726     16727     16730     16732     16726     16727     16730     16738
     16727     16730     16732     16733     16727     16730     16738     16739
     16727     16730     16738     16740     16727     16730     16738     16741
     16728     16727     16730     16731     16728     16727     16730     16732
     16728     16727     16730     16738     16729     16727     16730     16731
     16729     16727     16730     16732     16729     16727     16730     16738
     16730     16732     16733     16734     16730     16732     16733     16735
     16730     16738     16741     16742     16731     16730     16732     16733
     16731     16730     16738     16739     16731     16730     16738     16740
     16731     16730     16738     16741     16732     16730     16738     16739
     16732     16730     16738     16740     16732     16730     16738     16741
     16732     16733     16735     16736     16732     16733     16735     16737
     16732     16733     16735     16747     16733     16732     16730     16738
     16733     16735     16747     16748     16733     16735     16747     16749
     16733     16735     16747     16750     16734     16733     16735     16736
     16734     16733     16735     16737     16734     16733     16735     16747
     16735     16747     16750     16751     16735     16747     16750     16752
     16735     16747     16750     16753     16736     16735     16747     16748
     16736     16735     16747     16749     16736     16735     16747     16750
     16737     16735     16747     16748     16737     16735     16747     16749
     16737     16735     16747     16750     16738     16741     16742     16743
     16738     16741     16742     16744     16739     16738     16741     16742
     16740     16738     16741     16742     16741     16742     16744     16745
     16741     16742     16744     16746     16741     16742     16744     16794
     16742     16744     16794     16795     16742     16744     16794     16796
     16742     16744     16794     16797     16743     16742     16744     16745
     16743     16742     16744     16746     16743     16742     16744     16794
     16744     16794     16797     16798     16744     16794     16797     16799
     16744     16794     16797     16800     16745     16744     16794     16795
     16745     16744     16794     16796     16745     16744     16794     16797
     16746     16744     16794     16795     16746     16744     16794     16796
     16746     16744     16794     16797     16747     16750     16753     16754
     16747     16750     16753     16755     16747     16750     16753     16756
     16748     16747     16750     16751     16748     16747     16750     16752
     16748     16747     16750     16753     16749     16747     16750     16751
     16749     16747     16750     16752     16749     16747     16750     16753
     16750     16753     16756     16757     16750     16753     16756     16758
     16750     16753     16756     16759     16751     16750     16753     16754
     16751     16750     16753     16755     16751     16750     16753     16756
     16752     16750     16753     16754     16752     16750     16753     16755
     16752     16750     16753     16756     16753     16756     16759     16760
     16753     16756     16759     16761     16753     16756     16759     16762
     16754     16753     16756     16757     16754     16753     16756     16758
     16754     16753     16756     16759     16755     16753     16756     16757
     16755     16753     16756     16758     16755     16753     16756     16759
     16756     16759     16762     16763     16756     16759     16762     16764
     16756     16759     16762     16765     16757     16756     16759     16760
     16757     16756     16759     16761     16757     16756     16759     16762
     16758     16756     16759     16760     16758     16756     16759     16761
     16758     16756     16759     16762     16759     16762     16765     16766
     16759     16762     16765     16767     16760     16759     16762     16763
     16760     16759     16762     16764     16760     16759     16762     16765
     16761     16759     16762     16763     16761     16759     16762     16764
     16761     16759     16762     16765     16762     16765     16767     16768
     16762     16765     16767     16769     16763     16762     16765     16766
     16763     16762     16765     16767     16764     16762     16765     16766
     16764     16762     16765     16767     16765     16767     16769     16770
     16765     16767     16769     16771     16765     16767     16769     16772
     16766     16765     16767     16768     16766     16765     16767     16769
     16767     16769     16772     16773     16767     16769     16772     16774
     16767     16769     16772     16775     16768     16767     16769     16770
     16768     16767     16769     16771     16768     16767     16769     16772
     16769     16772     16775     16776     16769     16772     16775     16777
     16769     16772     16775     16778     16770     16769     16772     16773
     16770     16769     16772     16774     16770     16769     16772     16775
     16771     16769     16772     16773     16771     16769     16772     16774
     16771     16769     16772     16775     16772     16775     16778     16779
     16772     16775     16778     16780     16772     16775     16778     16781
     16773     16772     16775     16776     16773     16772     16775     16777
     16773     16772     16775     16778     16774     16772     16775     16776
     16774     16772     16775     16777     16774     16772     16775     16778
     16775     16778     16781     16782     16775     16778     16781     16783
     16775     16778     16781     16784     16776     16775     16778     16779
     16776     16775     16778     16780     16776     16775     16778     16781
     16777     16775     16778     16779     16777     16775     16778     16780
     16777     16775     16778     16781     16778     16781     16784     16785
     16778     16781     16784     16786     16778     16781     16784     16787
     16779     16778     16781     16782     16779     16778     16781     16783
     16779     16778     16781     16784     16780     16778     16781     16782
     16780     16778     16781     16783     16780     16778     16781     16784
     16781     16784     16787     16788     16781     16784     16787     16789
     16781     16784     16787     16790     16782     16781     16784     16785
     16782     16781     16784     16786     16782     16781     16784     16787
     16783     16781     16784     16785     16783     16781     16784     16786
     16783     16781     16784     16787     16784     16787     16790     16791
     16784     16787     16790     16792     16784     16787     16790     16793
     16785     16784     16787     16788     16785     16784     16787     16789
     16785     16784     16787     16790     16786     16784     16787     16788
     16786     16784     16787     16789     16786     16784     16787     16790
     16788     16787     16790     16791     16788     16787     16790     16792
     16788     16787     16790     16793     16789     16787     16790     16791
     16789     16787     16790     16792     16789     16787     16790     16793
     16794     16797     16800     16801     16794     16797     16800     16802
     16794     16797     16800     16803     16795     16794     16797     16798
     16795     16794     16797     16799     16795     16794     16797     16800
     16796     16794     16797     16798     16796     16794     16797     16799
     16796     16794     16797     16800     16797     16800     16803     16804
     16797     16800     16803     16805     16797     16800     16803     16806
     16798     16797     16800     16801     16798     16797     16800     16802
     16798     16797     16800     16803     16799     16797     16800     16801
     16799     16797     16800     16802     16799     16797     16800     16803
     16800     16803     16806     16807     16800     16803     16806     16808
     16800     16803     16806     16809     16801     16800     16803     16804
     16801     16800     16803     16805     16801     16800     16803     16806
     16802     16800     16803     16804     16802     16800     16803     16805
     16802     16800     16803     16806     16803     16806     16809     16810
     16803     16806     16809     16811     16803     16806     16809     16812
     16804     16803     16806     16807     16804     16803     16806     16808
     16804     16803     16806     16809     16805     16803     16806     16807
     16805     16803     16806     16808     16805     16803     16806     16809
     16806     16809     16812     16813     16806     16809     16812     16814
     16806     16809     16812     16815     16807     16806     16809     16810
     16807     16806     16809     16811     16807     16806     16809     16812
     16808     16806     16809     16810     16808     16806     16809     16811
     16808     16806     16809     16812     16809     16812     16815     16816
     16809     16812     16815     16817     16809     16812     16815     16818
     16810     16809     16812     16813     16810     16809     16812     16814
     16810     16809     16812     16815     16811     16809     16812     16813
     16811     16809     16812     16814     16811     16809     16812     16815
     16812     16815     16818     16819     16812     16815     16818     16820
     16812     16815     16818     16821     16813     16812     16815     16816
     16813     16812     16815     16817     16813     16812     16815     16818
     16814     16812     16815     16816     16814     16812     16815     16817
     16814     16812     16815     16818     16815     16818     16821     16822
     16815     16818     16821     16823     16815     16818     16821     16824
     16816     16815     16818     16819     16816     16815     16818     16820
     16816     16815     16818     16821     16817     16815     16818     16819
     16817     16815     16818     16820     16817     16815     16818     16821
     16818     16821     16824     16825     16818     16821     16824     16826
     16818     16821     16824     16827     16819     16818     16821     16822
     16819     16818     16821     16823     16819     16818     16821     16824
     16820     16818     16821     16822     16820     16818     16821     16823
     16820     16818     16821     16824     16821     16824     16827     16828
     16821     16824     16827     16829     16821     16824     16827     16830
     16822     16821     16824     16825     16822     16821     16824     16826
     16822     16821     16824     16827     16823     16821     16824     16825
     16823     16821     16824     16826     16823     16821     16824     16827
     16824     16827     16830     16831     16824     16827     16830     16832
     16824     16827     16830     16833     16825     16824     16827     16828
     16825     16824     16827     16829     16825     16824     16827     16830
     16826     16824     16827     16828     16826     16824     16827     16829
     16826     16824     16827     16830     16827     16830     16833     16834
     16827     16830     16833     16835     16827     16830     16833     16836
     16828     16827     16830     16831     16828     16827     16830     16832
     16828     16827     16830     16833     16829     16827     16830     16831
     16829     16827     16830     16832     16829     16827     16830     16833
     16831     16830     16833     16834     16831     16830     16833     16835
     16831     16830     16833     16836     16832     16830     16833     16834
     16832     16830     16833     16835     16832     16830     16833     16836
     16837     16838     16853     16854     16837     16838     16853     16855
     16837     16838     16853     16859     16838     16837     16841     16842
     16838     16837     16841     16843     16838     16837     16841     16844
     16838     16837     16845     16846     16838     16837     16845     16847
     16838     16837     16845     16848     16838     16837     16849     16850
     16838     16837     16849     16851     16838     16837     16849     16852
     16838     16853     16859     16856     16839     16838     16837     16841
     16839     16838     16837     16845     16839     16838     16837     16849
     16839     16838     16853     16854     16839     16838     16853     16855
     16839     16838     16853     16859     16840     16838     16837     16841
     16840     16838     16837     16845     16840     16838     16837     16849
     16840     16838     16853     16854     16840     16838     16853     16855
     16840     16838     16853     16859     16841     16837     16838     16853
     16841     16837     16845     16846     16841     16837     16845     16847
     16841     16837     16845     16848     16841     16837     16849     16850
     16841     16837     16849     16851     16841     16837     16849     16852
     16842     16841     16837     16845     16842     16841     16837     16849
     16843     16841     16837     16845     16843     16841     16837     16849
     16844     16841     16837     16845     16844     16841     16837     16849
     16845     16837     16838     16853     16845     16837     16849     16850
     16845     16837     16849     16851     16845     16837     16849     16852
     16846     16845     16837     16849     16847     16845     16837     16849
     16848     16845     16837     16849     16849     16837     16838     16853
     16853     16859     16856     16857     16853     16859     16856     16858
     16853     16859     16856     16860     16854     16853     16859     16856
     16855     16853     16859     16856     16856     16860     16861     16862
     16856     16860     16861     16863     16856     16860     16861     16864
     16857     16856     16860     16861     16858     16856     16860     16861
     16859     16856     16860     16861     16860     16861     16864     16865
     16860     16861     16864     16866     16860     16861     16864     16872
     16861     16864     16866     16867     16861     16864     16872     16873
     16861     16864     16872     16874     16861     16864     16872     16875
     16862     16861     16864     16865     16862     16861     16864     16866
     16862     16861     16864     16872     16863     16861     16864     16865
     16863     16861     16864     16866     16863     16861     16864     16872
     16864     16866     16867     16868     16864     16866     16867     16869
     16864     16872     16875     16876     16865     16864     16866     16867
     16865     16864     16872     16873     16865     16864     16872     16874
     16865     16864     16872     16875     16866     16864     16872     16873
     16866     16864     16872     16874     16866     16864     16872     16875
     16866     16867     16869     16870     16866     16867     16869     16871
     16866     16867     16869     16881     16867     16866     16864     16872
     16867     16869     16881     16882     16867     16869     16881     16883
     16867     16869     16881     16884     16868     16867     16869     16870
     16868     16867     16869     16871     16868     16867     16869     16881
     16869     16881     16884     16885     16869     16881     16884     16886
     16869     16881     16884     16887     16870     16869     16881     16882
     16870     16869     16881     16883     16870     16869     16881     16884
     16871     16869     16881     16882     16871     16869     16881     16883
     16871     16869     16881     16884     16872     16875     16876     16877
     16872     16875     16876     16878     16873     16872     16875     16876
     16874     16872     16875     16876     16875     16876     16878     16879
     16875     16876     16878     16880     16875     16876     16878     16928
     16876     16878     16928     16929     16876     16878     16928     16930
     16876     16878     16928     16931     16877     16876     16878     16879
     16877     16876     16878     16880     16877     16876     16878     16928
     16878     16928     16931     16932     16878     16928     16931     16933
     16878     16928     16931     16934     16879     16878     16928     16929
     16879     16878     16928     16930     16879     16878     16928     16931
     16880     16878     16928     16929     16880     16878     16928     16930
     16880     16878     16928     16931     16881     16884     16887     16888
     16881     16884     16887     16889     16881     16884     16887     16890
     16882     16881     16884     16885     16882     16881     16884     16886
     16882     16881     16884     16887     16883     16881     16884     16885
     16883     16881     16884     16886     16883     16881     16884     16887
     16884     16887     16890     16891     16884     16887     16890     16892
     16884     16887     16890     16893     16885     16884     16887     16888
     16885     16884     16887     16889     16885     16884     16887     16890
     16886     16884     16887     16888     16886     16884     16887     16889
     16886     16884     16887     16890     16887     16890     16893     16894
     16887     16890     16893     16895     16887     16890     16893     16896
     16888     16887     16890     16891     16888     16887     16890     16892
     16888     16887     16890     16893     16889     16887     16890     16891
     16889     16887     16890     16892     16889     16887     16890     16893
     16890     16893     16896     16897     16890     16893     16896     16898
     16890     16893     16896     16899     16891     16890     16893     16894
     16891     16890     16893     16895     16891     16890     16893     16896
     16892     16890     16893     16894     16892     16890     16893     16895
     16892     16890     16893     16896     16893     16896     16899     16900
     16893     16896     16899     16901     16894     16893     16896     16897
     16894     16893     16896     16898     16894     16893     16896     16899
     16895     16893     16896     16897     16895     16893     16896     16898
     16895     16893     16896     16899     16896     16899     16901     16902
     16896     16899     16901     16903     16897     16896     16899     16900
     16897     16896     16899     16901     16898     16896     16899     16900
     16898     16896     16899     16901     16899     16901     16903     16904
     16899     16901     16903     16905     16899     16901     16903     16906
     16900     16899     16901     16902     16900     16899     16901     16903
     16901     16903     16906     16907     16901     16903     16906     16908
     16901     16903     16906     16909     16902     16901     16903     16904
     16902     16901     16903     16905     16902     16901     16903     16906
     16903     16906     16909     16910     16903     16906     16909     16911
     16903     16906     16909     16912     16904     16903     16906     16907
     16904     16903     16906     16908     16904     16903     16906     16909
     16905     16903     16906     16907     16905     16903     16906     16908
     16905     16903     16906     16909     16906     16909     16912     16913
     16906     16909     16912     16914     16906     16909     16912     16915
     16907     16906     16909     16910     16907     16906     16909     16911
     16907     16906     16909     16912     16908     16906     16909     16910
     16908     16906     16909     16911     16908     16906     16909     16912
     16909     16912     16915     16916     16909     16912     16915     16917
     16909     16912     16915     16918     16910     16909     16912     16913
     16910     16909     16912     16914     16910     16909     16912     16915
     16911     16909     16912     16913     16911     16909     16912     16914
     16911     16909     16912     16915     16912     16915     16918     16919
     16912     16915     16918     16920     16912     16915     16918     16921
     16913     16912     16915     16916     16913     16912     16915     16917
     16913     16912     16915     16918     16914     16912     16915     16916
     16914     16912     16915     16917     16914     16912     16915     16918
     16915     16918     16921     16922     16915     16918     16921     16923
     16915     16918     16921     16924     16916     16915     16918     16919
     16916     16915     16918     16920     16916     16915     16918     16921
     16917     16915     16918     16919     16917     16915     16918     16920
     16917     16915     16918     16921     16918     16921     16924     16925
     16918     16921     16924     16926     16918     16921     16924     16927
     16919     16918     16921     16922     16919     16918     16921     16923
     16919     16918     16921     16924     16920     16918     16921     16922
     16920     16918     16921     16923     16920     16918     16921     16924
     16922     16921     16924     16925     16922     16921     16924     16926
     16922     16921     16924     16927     16923     16921     16924     16925
     16923     16921     16924     16926     16923     16921     16924     16927
     16928     16931     16934     16935     16928     16931     16934     16936
     16928     16931     16934     16937     16929     16928     16931     16932
     16929     16928     16931     16933     16929     16928     16931     16934
     16930     16928     16931     16932     16930     16928     16931     16933
     16930     16928     16931     16934     16931     16934     16937     16938
     16931     16934     16937     16939     16931     16934     16937     16940
     16932     16931     16934     16935     16932     16931     16934     16936
     16932     16931     16934     16937     16933     16931     16934     16935
     16933     16931     16934     16936     16933     16931     16934     16937
     16934     16937     16940     16941     16934     16937     16940     16942
     16934     16937     16940     16943     16935     16934     16937     16938
     16935     16934     16937     16939     16935     16934     16937     16940
     16936     16934     16937     16938     16936     16934     16937     16939
     16936     16934     16937     16940     16937     16940     16943     16944
     16937     16940     16943     16945     16937     16940     16943     16946
     16938     16937     16940     16941     16938     16937     16940     16942
     16938     16937     16940     16943     16939     16937     16940     16941
     16939     16937     16940     16942     16939     16937     16940     16943
     16940     16943     16946     16947     16940     16943     16946     16948
     16940     16943     16946     16949     16941     16940     16943     16944
     16941     16940     16943     16945     16941     16940     16943     16946
     16942     16940     16943     16944     16942     16940     16943     16945
     16942     16940     16943     16946     16943     16946     16949     16950
     16943     16946     16949     16951     16943     16946     16949     16952
     16944     16943     16946     16947     16944     16943     16946     16948
     16944     16943     16946     16949     16945     16943     16946     16947
     16945     16943     16946     16948     16945     16943     16946     16949
     16946     16949     16952     16953     16946     16949     16952     16954
     16946     16949     16952     16955     16947     16946     16949     16950
     16947     16946     16949     16951     16947     16946     16949     16952
     16948     16946     16949     16950     16948     16946     16949     16951
     16948     16946     16949     16952     16949     16952     16955     16956
     16949     16952     16955     16957     16949     16952     16955     16958
     16950     16949     16952     16953     16950     16949     16952     16954
     16950     16949     16952     16955     16951     16949     16952     16953
     16951     16949     16952     16954     16951     16949     16952     16955
     16952     16955     16958     16959     16952     16955     16958     16960
     16952     16955     16958     16961     16953     16952     16955     16956
     16953     16952     16955     16957     16953     16952     16955     16958
     16954     16952     16955     16956     16954     16952     16955     16957
     16954     16952     16955     16958     16955     16958     16961     16962
     16955     16958     16961     16963     16955     16958     16961     16964
     16956     16955     16958     16959     16956     16955     16958     16960
     16956     16955     16958     16961     16957     16955     16958     16959
     16957     16955     16958     16960     16957     16955     16958     16961
     16958     16961     16964     16965     16958     16961     16964     16966
     16958     16961     16964     16967     16959     16958     16961     16962
     16959     16958     16961     16963     16959     16958     16961     16964
     16960     16958     16961     16962     16960     16958     16961     16963
     16960     16958     16961     16964     16961     16964     16967     16968
     16961     16964     16967     16969     16961     16964     16967     16970
     16962     16961     16964     16965     16962     16961     16964     16966
     16962     16961     16964     16967     16963     16961     16964     16965
     16963     16961     16964     16966     16963     16961     16964     16967
     16965     16964     16967     16968     16965     16964     16967     16969
     16965     16964     16967     16970     16966     16964     16967     16968
     16966     16964     16967     16969     16966     16964     16967     16970
     16971     16972     16987     16988     16971     16972     16987     16989
     16971     16972     16987     16993     16972     16971     16975     16976
     16972     16971     16975     16977     16972     16971     16975     16978
     16972     16971     16979     16980     16972     16971     16979     16981
     16972     16971     16979     16982     16972     16971     16983     16984
     16972     16971     16983     16985     16972     16971     16983     16986
     16972     16987     16993     16990     16973     16972     16971     16975
     16973     16972     16971     16979     16973     16972     16971     16983
     16973     16972     16987     16988     16973     16972     16987     16989
     16973     16972     16987     16993     16974     16972     16971     16975
     16974     16972     16971     16979     16974     16972     16971     16983
     16974     16972     16987     16988     16974     16972     16987     16989
     16974     16972     16987     16993     16975     16971     16972     16987
     16975     16971     16979     16980     16975     16971     16979     16981
     16975     16971     16979     16982     16975     16971     16983     16984
     16975     16971     16983     16985     16975     16971     16983     16986
     16976     16975     16971     16979     16976     16975     16971     16983
     16977     16975     16971     16979     16977     16975     16971     16983
     16978     16975     16971     16979     16978     16975     16971     16983
     16979     16971     16972     16987     16979     16971     16983     16984
     16979     16971     16983     16985     16979     16971     16983     16986
     16980     16979     16971     16983     16981     16979     16971     16983
     16982     16979     16971     16983     16983     16971     16972     16987
     16987     16993     16990     16991     16987     16993     16990     16992
     16987     16993     16990     16994     16988     16987     16993     16990
     16989     16987     16993     16990     16990     16994     16995     16996
     16990     16994     16995     16997     16990     16994     16995     16998
     16991     16990     16994     16995     16992     16990     16994     16995
     16993     16990     16994     16995     16994     16995     16998     16999
     16994     16995     16998     17000     16994     16995     16998     17006
     16995     16998     17000     17001     16995     16998     17006     17007
     16995     16998     17006     17008     16995     16998     17006     17009
     16996     16995     16998     16999     16996     16995     16998     17000
     16996     16995     16998     17006     16997     16995     16998     16999
     16997     16995     16998     17000     16997     16995     16998     17006
     16998     17000     17001     17002     16998     17000     17001     17003
     16998     17006     17009     17010     16999     16998     17000     17001
     16999     16998     17006     17007     16999     16998     17006     17008
     16999     16998     17006     17009     17000     16998     17006     17007
     17000     16998     17006     17008     17000     16998     17006     17009
     17000     17001     17003     17004     17000     17001     17003     17005
     17000     17001     17003     17015     17001     17000     16998     17006
     17001     17003     17015     17016     17001     17003     17015     17017
     17001     17003     17015     17018     17002     17001     17003     17004
     17002     17001     17003     17005     17002     17001     17003     17015
     17003     17015     17018     17019     17003     17015     17018     17020
     17003     17015     17018     17021     17004     17003     17015     17016
     17004     17003     17015     17017     17004     17003     17015     17018
     17005     17003     17015     17016     17005     17003     17015     17017
     17005     17003     17015     17018     17006     17009     17010     17011
     17006     17009     17010     17012     17007     17006     17009     17010
     17008     17006     17009     17010     17009     17010     17012     17013
     17009     17010     17012     17014     17009     17010     17012     17062
     17010     17012     17062     17063     17010     17012     17062     17064
     17010     17012     17062     17065     17011     17010     17012     17013
     17011     17010     17012     17014     17011     17010     17012     17062
     17012     17062     17065     17066     17012     17062     17065     17067
     17012     17062     17065     17068     17013     17012     17062     17063
     17013     17012     17062     17064     17013     17012     17062     17065
     17014     17012     17062     17063     17014     17012     17062     17064
     17014     17012     17062     17065     17015     17018     17021     17022
     17015     17018     17021     17023     17015     17018     17021     17024
     17016     17015     17018     17019     17016     17015     17018     17020
     17016     17015     17018     17021     17017     17015     17018     17019
     17017     17015     17018     17020     17017     17015     17018     17021
     17018     17021     17024     17025     17018     17021     17024     17026
     17018     17021     17024     17027     17019     17018     17021     17022
     17019     17018     17021     17023     17019     17018     17021     17024
     17020     17018     17021     17022     17020     17018     17021     17023
     17020     17018     17021     17024     17021     17024     17027     17028
     17021     17024     17027     17029     17021     17024     17027     17030
     17022     17021     17024     17025     17022     17021     17024     17026
     17022     17021     17024     17027     17023     17021     17024     17025
     17023     17021     17024     17026     17023     17021     17024     17027
     17024     17027     17030     17031     17024     17027     17030     17032
     17024     17027     17030     17033     17025     17024     17027     17028
     17025     17024     17027     17029     17025     17024     17027     17030
     17026     17024     17027     17028     17026     17024     17027     17029
     17026     17024     17027     17030     17027     17030     17033     17034
     17027     17030     17033     17035     17028     17027     17030     17031
     17028     17027     17030     17032     17028     17027     17030     17033
     17029     17027     17030     17031     17029     17027     17030     17032
     17029     17027     17030     17033     17030     17033     17035     17036
     17030     17033     17035     17037     17031     17030     17033     17034
     17031     17030     17033     17035     17032     17030     17033     17034
     17032     17030     17033     17035     17033     17035     17037     17038
     17033     17035     17037     17039     17033     17035     17037     17040
     17034     17033     17035     17036     17034     17033     17035     17037
     17035     17037     17040     17041     17035     17037     17040     17042
     17035     17037     17040     17043     17036     17035     17037     17038
     17036     17035     17037     17039     17036     17035     17037     17040
     17037     17040     17043     17044     17037     17040     17043     17045
     17037     17040     17043     17046     17038     17037     17040     17041
     17038     17037     17040     17042     17038     17037     17040     17043
     17039     17037     17040     17041     17039     17037     17040     17042
     17039     17037     17040     17043     17040     17043     17046     17047
     17040     17043     17046     17048     17040     17043     17046     17049
     17041     17040     17043     17044     17041     17040     17043     17045
     17041     17040     17043     17046     17042     17040     17043     17044
     17042     17040     17043     17045     17042     17040     17043     17046
     17043     17046     17049     17050     17043     17046     17049     17051
     17043     17046     17049     17052     17044     17043     17046     17047
     17044     17043     17046     17048     17044     17043     17046     17049
     17045     17043     17046     17047     17045     17043     17046     17048
     17045     17043     17046     17049     17046     17049     17052     17053
     17046     17049     17052     17054     17046     17049     17052     17055
     17047     17046     17049     17050     17047     17046     17049     17051
     17047     17046     17049     17052     17048     17046     17049     17050
     17048     17046     17049     17051     17048     17046     17049     17052
     17049     17052     17055     17056     17049     17052     17055     17057
     17049     17052     17055     17058     17050     17049     17052     17053
     17050     17049     17052     17054     17050     17049     17052     17055
     17051     17049     17052     17053     17051     17049     17052     17054
     17051     17049     17052     17055     17052     17055     17058     17059
     17052     17055     17058     17060     17052     17055     17058     17061
     17053     17052     17055     17056     17053     17052     17055     17057
     17053     17052     17055     17058     17054     17052     17055     17056
     17054     17052     17055     17057     17054     17052     17055     17058
     17056     17055     17058     17059     17056     17055     17058     17060
     17056     17055     17058     17061     17057     17055     17058     17059
     17057     17055     17058     17060     17057     17055     17058     17061
     17062     17065     17068     17069     17062     17065     17068     17070
     17062     17065     17068     17071     17063     17062     17065     17066
     17063     17062     17065     17067     17063     17062     17065     17068
     17064     17062     17065     17066     17064     17062     17065     17067
     17064     17062     17065     17068     17065     17068     17071     17072
     17065     17068     17071     17073     17065     17068     17071     17074
     17066     17065     17068     17069     17066     17065     17068     17070
     17066     17065     17068     17071     17067     17065     17068     17069
     17067     17065     17068     17070     17067     17065     17068     17071
     17068     17071     17074     17075     17068     17071     17074     17076
     17068     17071     17074     17077     17069     17068     17071     17072
     17069     17068     17071     17073     17069     17068     17071     17074
     17070     17068     17071     17072     17070     17068     17071     17073
     17070     17068     17071     17074     17071     17074     17077     17078
     17071     17074     17077     17079     17071     17074     17077     17080
     17072     17071     17074     17075     17072     17071     17074     17076
     17072     17071     17074     17077     17073     17071     17074     17075
     17073     17071     17074     17076     17073     17071     17074     17077
     17074     17077     17080     17081     17074     17077     17080     17082
     17074     17077     17080     17083     17075     17074     17077     17078
     17075     17074     17077     17079     17075     17074     17077     17080
     17076     17074     17077     17078     17076     17074     17077     17079
     17076     17074     17077     17080     17077     17080     17083     17084
     17077     17080     17083     17085     17077     17080     17083     17086
     17078     17077     17080     17081     17078     17077     17080     17082
     17078     17077     17080     17083     17079     17077     17080     17081
     17079     17077     17080     17082     17079     17077     17080     17083
     17080     17083     17086     17087     17080     17083     17086     17088
     17080     17083     17086     17089     17081     17080     17083     17084
     17081     17080     17083     17085     17081     17080     17083     17086
     17082     17080     17083     17084     17082     17080     17083     17085
     17082     17080     17083     17086     17083     17086     17089     17090
     17083     17086     17089     17091     17083     17086     17089     17092
     17084     17083     17086     17087     17084     17083     17086     17088
     17084     17083     17086     17089     17085     17083     17086     17087
     17085     17083     17086     17088     17085     17083     17086     17089
     17086     17089     17092     17093     17086     17089     17092     17094
     17086     17089     17092     17095     17087     17086     17089     17090
     17087     17086     17089     17091     17087     17086     17089     17092
     17088     17086     17089     17090     17088     17086     17089     17091
     17088     17086     17089     17092     17089     17092     17095     17096
     17089     17092     17095     17097     17089     17092     17095     17098
     17090     17089     17092     17093     17090     17089     17092     17094
     17090     17089     17092     17095     17091     17089     17092     17093
     17091     17089     17092     17094     17091     17089     17092     17095
     17092     17095     17098     17099     17092     17095     17098     17100
     17092     17095     17098     17101     17093     17092     17095     17096
     17093     17092     17095     17097     17093     17092     17095     17098
     17094     17092     17095     17096     17094     17092     17095     17097
     17094     17092     17095     17098     17095     17098     17101     17102
     17095     17098     17101     17103     17095     17098     17101     17104
     17096     17095     17098     17099     17096     17095     17098     17100
     17096     17095     17098     17101     17097     17095     17098     17099
     17097     17095     17098     17100     17097     17095     17098     17101
     17099     17098     17101     17102     17099     17098     17101     17103
     17099     17098     17101     17104     17100     17098     17101     17102
     17100     17098     17101     17103     17100     17098     17101     17104
     17105     17106     17121     17122     17105     17106     17121     17123
     17105     17106     17121     17127     17106     17105     17109     17110
     17106     17105     17109     17111     17106     17105     17109     17112
     17106     17105     17113     17114     17106     17105     17113     17115
     17106     17105     17113     17116     17106     17105     17117     17118
     17106     17105     17117     17119     17106     17105     17117     17120
     17106     17121     17127     17124     17107     17106     17105     17109
     17107     17106     17105     17113     17107     17106     17105     17117
     17107     17106     17121     17122     17107     17106     17121     17123
     17107     17106     17121     17127     17108     17106     17105     17109
     17108     17106     17105     17113     17108     17106     17105     17117
     17108     17106     17121     17122     17108     17106     17121     17123
     17108     17106     17121     17127     17109     17105     17106     17121
     17109     17105     17113     17114     17109     17105     17113     17115
     17109     17105     17113     17116     17109     17105     17117     17118
     17109     17105     17117     17119     17109     17105     17117     17120
     17110     17109     17105     17113     17110     17109     17105     17117
     17111     17109     17105     17113     17111     17109     17105     17117
     17112     17109     17105     17113     17112     17109     17105     17117
     17113     17105     17106     17121     17113     17105     17117     17118
     17113     17105     17117     17119     17113     17105     17117     17120
     17114     17113     17105     17117     17115     17113     17105     17117
     17116     17113     17105     17117     17117     17105     17106     17121
     17121     17127     17124     17125     17121     17127     17124     17126
     17121     17127     17124     17128     17122     17121     17127     17124
     17123     17121     17127     17124     17124     17128     17129     17130
     17124     17128     17129     17131     17124     17128     17129     17132
     17125     17124     17128     17129     17126     17124     17128     17129
     17127     17124     17128     17129     17128     17129     17132     17133
     17128     17129     17132     17134     17128     17129     17132     17140
     17129     17132     17134     17135     17129     17132     17140     17141
     17129     17132     17140     17142     17129     17132     17140     17143
     17130     17129     17132     17133     17130     17129     17132     17134
     17130     17129     17132     17140     17131     17129     17132     17133
     17131     17129     17132     17134     17131     17129     17132     17140
     17132     17134     17135     17136     17132     17134     17135     17137
     17132     17140     17143     17144     17133     17132     17134     17135
     17133     17132     17140     17141     17133     17132     17140     17142
     17133     17132     17140     17143     17134     17132     17140     17141
     17134     17132     17140     17142     17134     17132     17140     17143
     17134     17135     17137     17138     17134     17135     17137     17139
     17134     17135     17137     17149     17135     17134     17132     17140
     17135     17137     17149     17150     17135     17137     17149     17151
     17135     17137     17149     17152     17136     17135     17137     17138
     17136     17135     17137     17139     17136     17135     17137     17149
     17137     17149     17152     17153     17137     17149     17152     17154
     17137     17149     17152     17155     17138     17137     17149     17150
     17138     17137     17149     17151     17138     17137     17149     17152
     17139     17137     17149     17150     17139     17137     17149     17151
     17139     17137     17149     17152     17140     17143     17144     17145
     17140     17143     17144     17146     17141     17140     17143     17144
     17142     17140     17143     17144     17143     17144     17146     17147
     17143     17144     17146     17148     17143     17144     17146     17196
     17144     17146     17196     17197     17144     17146     17196     17198
     17144     17146     17196     17199     17145     17144     17146     17147
     17145     17144     17146     17148     17145     17144     17146     17196
     17146     17196     17199     17200     17146     17196     17199     17201
     17146     17196     17199     17202     17147     17146     17196     17197
     17147     17146     17196     17198     17147     17146     17196     17199
     17148     17146     17196     17197     17148     17146     17196     17198
     17148     17146     17196     17199     17149     17152     17155     17156
     17149     17152     17155     17157     17149     17152     17155     17158
     17150     17149     17152     17153     17150     17149     17152     17154
     17150     17149     17152     17155     17151     17149     17152     17153
     17151     17149     17152     17154     17151     17149     17152     17155
     17152     17155     17158     17159     17152     17155     17158     17160
     17152     17155     17158     17161     17153     17152     17155     17156
     17153     17152     17155     17157     17153     17152     17155     17158
     17154     17152     17155     17156     17154     17152     17155     17157
     17154     17152     17155     17158     17155     17158     17161     17162
     17155     17158     17161     17163     17155     17158     17161     17164
     17156     17155     17158     17159     17156     17155     17158     17160
     17156     17155     17158     17161     17157     17155     17158     17159
     17157     17155     17158     17160     17157     17155     17158     17161
     17158     17161     17164     17165     17158     17161     17164     17166
     17158     17161     17164     17167     17159     17158     17161     17162
     17159     17158     17161     17163     17159     17158     17161     17164
     17160     17158     17161     17162     17160     17158     17161     17163
     17160     17158     17161     17164     17161     17164     17167     17168
     17161     17164     17167     17169     17162     17161     17164     17165
     17162     17161     17164     17166     17162     17161     17164     17167
     17163     17161     17164     17165     17163     17161     17164     17166
     17163     17161     17164     17167     17164     17167     17169     17170
     17164     17167     17169     17171     17165     17164     17167     17168
     17165     17164     17167     17169     17166     17164     17167     17168
     17166     17164     17167     17169     17167     17169     17171     17172
     17167     17169     17171     17173     17167     17169     17171     17174
     17168     17167     17169     17170     17168     17167     17169     17171
     17169     17171     17174     17175     17169     17171     17174     17176
     17169     17171     17174     17177     17170     17169     17171     17172
     17170     17169     17171     17173     17170     17169     17171     17174
     17171     17174     17177     17178     17171     17174     17177     17179
     17171     17174     17177     17180     17172     17171     17174     17175
     17172     17171     17174     17176     17172     17171     17174     17177
     17173     17171     17174     17175     17173     17171     17174     17176
     17173     17171     17174     17177     17174     17177     17180     17181
     17174     17177     17180     17182     17174     17177     17180     17183
     17175     17174     17177     17178     17175     17174     17177     17179
     17175     17174     17177     17180     17176     17174     17177     17178
     17176     17174     17177     17179     17176     17174     17177     17180
     17177     17180     17183     17184     17177     17180     17183     17185
     17177     17180     17183     17186     17178     17177     17180     17181
     17178     17177     17180     17182     17178     17177     17180     17183
     17179     17177     17180     17181     17179     17177     17180     17182
     17179     17177     17180     17183     17180     17183     17186     17187
     17180     17183     17186     17188     17180     17183     17186     17189
     17181     17180     17183     17184     17181     17180     17183     17185
     17181     17180     17183     17186     17182     17180     17183     17184
     17182     17180     17183     17185     17182     17180     17183     17186
     17183     17186     17189     17190     17183     17186     17189     17191
     17183     17186     17189     17192     17184     17183     17186     17187
     17184     17183     17186     17188     17184     17183     17186     17189
     17185     17183     17186     17187     17185     17183     17186     17188
     17185     17183     17186     17189     17186     17189     17192     17193
     17186     17189     17192     17194     17186     17189     17192     17195
     17187     17186     17189     17190     17187     17186     17189     17191
     17187     17186     17189     17192     17188     17186     17189     17190
     17188     17186     17189     17191     17188     17186     17189     17192
     17190     17189     17192     17193     17190     17189     17192     17194
     17190     17189     17192     17195     17191     17189     17192     17193
     17191     17189     17192     17194     17191     17189     17192     17195
     17196     17199     17202     17203     17196     17199     17202     17204
     17196     17199     17202     17205     17197     17196     17199     17200
     17197     17196     17199     17201     17197     17196     17199     17202
     17198     17196     17199     17200     17198     17196     17199     17201
     17198     17196     17199     17202     17199     17202     17205     17206
     17199     17202     17205     17207     17199     17202     17205     17208
     17200     17199     17202     17203     17200     17199     17202     17204
     17200     17199     17202     17205     17201     17199     17202     17203
     17201     17199     17202     17204     17201     17199     17202     17205
     17202     17205     17208     17209     17202     17205     17208     17210
     17202     17205     17208     17211     17203     17202     17205     17206
     17203     17202     17205     17207     17203     17202     17205     17208
     17204     17202     17205     17206     17204     17202     17205     17207
     17204     17202     17205     17208     17205     17208     17211     17212
     17205     17208     17211     17213     17205     17208     17211     17214
     17206     17205     17208     17209     17206     17205     17208     17210
     17206     17205     17208     17211     17207     17205     17208     17209
     17207     17205     17208     17210     17207     17205     17208     17211
     17208     17211     17214     17215     17208     17211     17214     17216
     17208     17211     17214     17217     17209     17208     17211     17212
     17209     17208     17211     17213     17209     17208     17211     17214
     17210     17208     17211     17212     17210     17208     17211     17213
     17210     17208     17211     17214     17211     17214     17217     17218
     17211     17214     17217     17219     17211     17214     17217     17220
     17212     17211     17214     17215     17212     17211     17214     17216
     17212     17211     17214     17217     17213     17211     17214     17215
     17213     17211     17214     17216     17213     17211     17214     17217
     17214     17217     17220     17221     17214     17217     17220     17222
     17214     17217     17220     17223     17215     17214     17217     17218
     17215     17214     17217     17219     17215     17214     17217     17220
     17216     17214     17217     17218     17216     17214     17217     17219
     17216     17214     17217     17220     17217     17220     17223     17224
     17217     17220     17223     17225     17217     17220     17223     17226
     17218     17217     17220     17221     17218     17217     17220     17222
     17218     17217     17220     17223     17219     17217     17220     17221
     17219     17217     17220     17222     17219     17217     17220     17223
     17220     17223     17226     17227     17220     17223     17226     17228
     17220     17223     17226     17229     17221     17220     17223     17224
     17221     17220     17223     17225     17221     17220     17223     17226
     17222     17220     17223     17224     17222     17220     17223     17225
     17222     17220     17223     17226     17223     17226     17229     17230
     17223     17226     17229     17231     17223     17226     17229     17232
     17224     17223     17226     17227     17224     17223     17226     17228
     17224     17223     17226     17229     17225     17223     17226     17227
     17225     17223     17226     17228     17225     17223     17226     17229
     17226     17229     17232     17233     17226     17229     17232     17234
     17226     17229     17232     17235     17227     17226     17229     17230
     17227     17226     17229     17231     17227     17226     17229     17232
     17228     17226     17229     17230     17228     17226     17229     17231
     17228     17226     17229     17232     17229     17232     17235     17236
     17229     17232     17235     17237     17229     17232     17235     17238
     17230     17229     17232     17233     17230     17229     17232     17234
     17230     17229     17232     17235     17231     17229     17232     17233
     17231     17229     17232     17234     17231     17229     17232     17235
     17233     17232     17235     17236     17233     17232     17235     17237
     17233     17232     17235     17238     17234     17232     17235     17236
     17234     17232     17235     17237     17234     17232     17235     17238

       286 !NIMPHI: impropers
        31        30        33        32        40        39        42        41
       165       164       167       166       174       173       176       175
       299       298       301       300       308       307       310       309
       433       432       435       434       442       441       444       443
       567       566       569       568       576       575       578       577
       694       693       696       695       703       702       705       704
       677       675       679       678       828       827       830       829
       837       836       839       838       962       961       964       963
       971       970       973       972      1089      1088      1091      1090
      1098      1097      1100      1099      1072      1070      1074      1073
      1223      1222      1225      1224      1232      1231      1234      1233
      1350      1349      1352      1351      1359      1358      1361      1360
      1333      1331      1335      1334      1477      1476      1479      1478
      1486      1485      1488      1487      1460      1458      1462      1461
      1611      1610      1613      1612      1620      1619      1622      1621
      1745      1744      1747      1746      1754      1753      1756      1755
      1879      1878      1881      1880      1888      1887      1890      1889
      2013      2012      2015      2014      2022      2021      2024      2023
      2147      2146      2149      2148      2156      2155      2158      2157
      2281      2280      2283      2282      2290      2289      2292      2291
      2415      2414      2417      2416      2424      2423      2426      2425
      2549      2548      2551      2550      2558      2557      2560      2559
      2683      2682      2685      2684      2692      2691      2694      2693
      2817      2816      2819      2818      2826      2825      2828      2827
      2951      2950      2953      2952      2960      2959      2962      2961
      3078      3077      3080      3079      3087      3086      3089      3088
      3061      3059      3063      3062      3205      3204      3207      3206
      3214      3213      3216      3215      3188      3186      3190      3189
      3339      3338      3341      3340      3348      3347      3350      3349
      3473      3472      3475      3474      3482      3481      3484      3483
      3607      3606      3609      3608      3616      3615      3618      3617
      3741      3740      3743      3742      3750      3749      3752      3751
      3875      3874      3877      3876      3884      3883      3886      3885
      4002      4001      4004      4003      4011      4010      4013      4012
      3985      3983      3987      3986      4136      4135      4138      4137
      4145      4144      4147      4146      4270      4269      4272      4271
      4279      4278      4281      4280      4404      4403      4406      4405
      4413      4412      4415      4414      4531      4530      4533      4532
      4540      4539      4542      4541      4514      4512      4516      4515
      4665      4664      4667      4666      4674      4673      4676      4675
      4799      4798      4801      4800      4808      4807      4810      4809
      4933      4932      4935      4934      4942      4941      4944      4943
      5067      5066      5069      5068      5076      5075      5078      5077
      5201      5200      5203      5202      5210      5209      5212      5211
      5335      5334      5337      5336      5344      5343      5346      5345
      5469      5468      5471      5470      5478      5477      5480      5479
      5603      5602      5605      5604      5612      5611      5614      5613
      5737      5736      5739      5738      5746      5745      5748      5747
      5871      5870      5873      5872      5880      5879      5882      5881
      6005      6004      6007      6006      6014      6013      6016      6015
      6132      6131      6134      6133      6141      6140      6143      6142
      6115      6113      6117      6116      6266      6265      6268      6267
      6275      6274      6277      6276      6400      6399      6402      6401
      6409      6408      6411      6410      6527      6526      6529      6528
      6536      6535      6538      6537      6510      6508      6512      6511
      6654      6653      6656      6655      6663      6662      6665      6664
      6637      6635      6639      6638      6788      6787      6790      6789
      6797      6796      6799      6798      6922      6921      6924      6923
      6931      6930      6933      6932      7049      7048      7051      7050
      7058      7057      7060      7059      7032      7030      7034      7033
      7183      7182      7185      7184      7192      7191      7194      7193
      7317      7316      7319      7318      7326      7325      7328      7327
      7444      7443      7446      7445      7453      7452      7455      7454
      7427      7425      7429      7428      7578      7577      7580      7579
      7587      7586      7589      7588      7712      7711      7714      7713
      7721      7720      7723      7722      7846      7845      7848      7847
      7855      7854      7857      7856      7980      7979      7982      7981
      7989      7988      7991      7990      8114      8113      8116      8115
      8123      8122      8125      8124      8248      8247      8250      8249
      8257      8256      8259      8258      8382      8381      8384      8383
      8391      8390      8393      8392      8516      8515      8518      8517
      8525      8524      8527      8526      8643      8642      8645      8644
      8652      8651      8654      8653      8626      8624      8628      8627
      8777      8776      8779      8778      8786      8785      8788      8787
      8911      8910      8913      8912      8920      8919      8922      8921
      9045      9044      9047      9046      9054      9053      9056      9055
      9179      9178      9181      9180      9188      9187      9190      9189
      9313      9312      9315      9314      9322      9321      9324      9323
      9440      9439      9442      9441      9449      9448      9451      9450
      9423      9421      9425      9424      9574      9573      9576      9575
      9583      9582      9585      9584      9701      9700      9703      9702
      9710      9709      9712      9711      9684      9682      9686      9685
      9835      9834      9837      9836      9844      9843      9846      9845
      9969      9968      9971      9970      9978      9977      9980      9979
     10103     10102     10105     10104     10112     10111     10114     10113
     10230     10229     10232     10231     10239     10238     10241     10240
     10213     10211     10215     10214     10364     10363     10366     10365
     10373     10372     10375     10374     10491     10490     10493     10492
     10500     10499     10502     10501     10474     10472     10476     10475
     10618     10617     10620     10619     10627     10626     10629     10628
     10601     10599     10603     10602     10752     10751     10754     10753
     10761     10760     10763     10762     10886     10885     10888     10887
     10895     10894     10897     10896     11020     11019     11022     11021
     11029     11028     11031     11030     11154     11153     11156     11155
     11163     11162     11165     11164     11288     11287     11290     11289
     11297     11296     11299     11298     11422     11421     11424     11423
     11431     11430     11433     11432     11556     11555     11558     11557
     11565     11564     11567     11566     11690     11689     11692     11691
     11699     11698     11701     11700     11824     11823     11826     11825
     11833     11832     11835     11834     11951     11950     11953     11952
     11960     11959     11962     11961     11934     11932     11936     11935
     12078     12077     12080     12079     12087     12086     12089     12088
     12061     12059     12063     12062     12212     12211     12214     12213
     12221     12220     12223     12222     12346     12345     12348     12347
     12355     12354     12357     12356     12473     12472     12475     12474
     12482     12481     12484     12483     12456     12454     12458     12457
     12607     12606     12609     12608     12616     12615     12618     12617
     12741     12740     12743     12742     12750     12749     12752     12751
     12875     12874     12877     12876     12884     12883     12886     12885
     13009     13008     13011     13010     13018     13017     13020     13019
     13143     13142     13145     13144     13152     13151     13154     13153
     13277     13276     13279     13278     13286     13285     13288     13287
     13411     13410     13413     13412     13420     13419     13422     13421
     13545     13544     13547     13546     13554     13553     13556     13555
     13679     13678     13681     13680     13688     13687     13690     13689
     13813     13812     13815     13814     13822     13821     13824     13823
     13947     13946     13949     13948     13956     13955     13958     13957
     14081     14080     14083     14082     14090     14089     14092     14091
     14215     14214     14217     14216     14224     14223     14226     14225
     14349     14348     14351     14350     14358     14357     14360     14359
     14483     14482     14485     14484     14492     14491     14494     14493
     14617     14616     14619     14618     14626     14625     14628     14627
     14751     14750     14753     14752     14760     14759     14762     14761
     14878     14877     14880     14879     14887     14886     14889     14888
     14861     14859     14863     14862     15012     15011     15014     15013
     15021     15020     15023     15022     15146     15145     15148     15147
     15155     15154     15157     15156     15280     15279     15282     15281
     15289     15288     15291     15290     15414     15413     15416     15415
     15423     15422     15425     15424     15548     15547     15550     15549
     15557     15556     15559     15558     15682     15681     15684     15683
     15691     15690     15693     15692     15809     15808     15811     15810
     15818     15817     15820     15819     15792     15790     15794     15793
     15943     15942     15945     15944     15952     15951     15954     15953
     16077     16076     16079     16078     16086     16085     16088     16087
     16204     16203     16206     16205     16213     16212     16215     16214
     16187     16185     16189     16188     16338     16337     16340     16339
     16347     16346     16349     16348     16472     16471     16474     16473
     16481     16480     16483     16482     16599     16598     16601     16600
     16608     16607     16610     16609     16582     16580     16584     16583
     16733     16732     16735     16734     16742     16741     16744     16743
     16867     16866     16869     16868     16876     16875     16878     16877
     17001     17000     17003     17002     17010     17009     17012     17011
     17135     17134     17137     17136     17144     17143     17146     17145

      7224 !NDON: donors
     17239     17240     17239     17241     17242     17243     17242     17244
     17245     17246     17245     17247     17248     17249     17248     17250
     17251     17252     17251     17253     17254     17255     17254     17256
     17257     17258     17257     17259     17260     17261     17260     17262
     17263     17264     17263     17265     17266     17267     17266     17268
     17269     17270     17269     17271     17272     17273     17272     17274
     17275     17276     17275     17277     17278     17279     17278     17280
     17281     17282     17281     17283     17284     17285     17284     17286
     17287     17288     17287     17289     17290     17291     17290     17292
     17293     17294     17293     17295     17296     17297     17296     17298
     17299     17300     17299     17301     17302     17303     17302     17304
     17305     17306     17305     17307     17308     17309     17308     17310
     17311     17312     17311     17313     17314     17315     17314     17316
     17317     17318     17317     17319     17320     17321     17320     17322
     17323     17324     17323     17325     17326     17327     17326     17328
     17329     17330     17329     17331     17332     17333     17332     17334
     17335     17336     17335     17337     17338     17339     17338     17340
     17341     17342     17341     17343     17344     17345     17344     17346
     17347     17348     17347     17349     17350     17351     17350     17352
     17353     17354     17353     17355     17356     17357     17356     17358
     17359     17360     17359     17361     17362     17363     17362     17364
     17365     17366     17365     17367     17368     17369     17368     17370
     17371     17372     17371     17373     17374     17375     17374     17376
     17377     17378     17377     17379     17380     17381     17380     17382
     17383     17384     17383     17385     17386     17387     17386     17388
     17389     17390     17389     17391     17392     17393     17392     17394
     17395     17396     17395     17397     17398     17399     17398     17400
     17401     17402     17401     17403     17404     17405     17404     17406
     17407     17408     17407     17409     17410     17411     17410     17412
     17413     17414     17413     17415     17416     17417     17416     17418
     17419     17420     17419     17421     17422     17423     17422     17424
     17425     17426     17425     17427     17428     17429     17428     17430
     17431     17432     17431     17433     17434     17435     17434     17436
     17437     17438     17437     17439     17440     17441     17440     17442
     17443     17444     17443     17445     17446     17447     17446     17448
     17449     17450     17449     17451     17452     17453     17452     17454
     17455     17456     17455     17457     17458     17459     17458     17460
     17461     17462     17461     17463     17464     17465     17464     17466
     17467     17468     17467     17469     17470     17471     17470     17472
     17473     17474     17473     17475     17476     17477     17476     17478
     17479     17480     17479     17481     17482     17483     17482     17484
     17485     17486     17485     17487     17488     17489     17488     17490
     17491     17492     17491     17493     17494     17495     17494     17496
     17497     17498     17497     17499     17500     17501     17500     17502
     17503     17504     17503     17505     17506     17507     17506     17508
     17509     17510     17509     17511     17512     17513     17512     17514
     17515     17516     17515     17517     17518     17519     17518     17520
     17521     17522     17521     17523     17524     17525     17524     17526
     17527     17528     17527     17529     17530     17531     17530     17532
     17533     17534     17533     17535     17536     17537     17536     17538
     17539     17540     17539     17541     17542     17543     17542     17544
     17545     17546     17545     17547     17548     17549     17548     17550
     17551     17552     17551     17553     17554     17555     17554     17556
     17557     17558     17557     17559     17560     17561     17560     17562
     17563     17564     17563     17565     17566     17567     17566     17568
     17569     17570     17569     17571     17572     17573     17572     17574
     17575     17576     17575     17577     17578     17579     17578     17580
     17581     17582     17581     17583     17584     17585     17584     17586
     17587     17588     17587     17589     17590     17591     17590     17592
     17593     17594     17593     17595     17596     17597     17596     17598
     17599     17600     17599     17601     17602     17603     17602     17604
     17605     17606     17605     17607     17608     17609     17608     17610
     17611     17612     17611     17613     17614     17615     17614     17616
     17617     17618     17617     17619     17620     17621     17620     17622
     17623     17624     17623     17625     17626     17627     17626     17628
     17629     17630     17629     17631     17632     17633     17632     17634
     17635     17636     17635     17637     17638     17639     17638     17640
     17641     17642     17641     17643     17644     17645     17644     17646
     17647     17648     17647     17649     17650     17651     17650     17652
     17653     17654     17653     17655     17656     17657     17656     17658
     17659     17660     17659     17661     17662     17663     17662     17664
     17665     17666     17665     17667     17668     17669     17668     17670
     17671     17672     17671     17673     17674     17675     17674     17676
     17677     17678     17677     17679     17680     17681     17680     17682
     17683     17684     17683     17685     17686     17687     17686     17688
     17689     17690     17689     17691     17692     17693     17692     17694
     17695     17696     17695     17697     17698     17699     17698     17700
     17701     17702     17701     17703     17704     17705     17704     17706
     17707     17708     17707     17709     17710     17711     17710     17712
     17713     17714     17713     17715     17716     17717     17716     17718
     17719     17720     17719     17721     17722     17723     17722     17724
     17725     17726     17725     17727     17728     17729     17728     17730
     17731     17732     17731     17733     17734     17735     17734     17736
     17737     17738     17737     17739     17740     17741     17740     17742
     17743     17744     17743     17745     17746     17747     17746     17748
     17749     17750     17749     17751     17752     17753     17752     17754
     17755     17756     17755     17757     17758     17759     17758     17760
     17761     17762     17761     17763     17764     17765     17764     17766
     17767     17768     17767     17769     17770     17771     17770     17772
     17773     17774     17773     17775     17776     17777     17776     17778
     17779     17780     17779     17781     17782     17783     17782     17784
     17785     17786     17785     17787     17788     17789     17788     17790
     17791     17792     17791     17793     17794     17795     17794     17796
     17797     17798     17797     17799     17800     17801     17800     17802
     17803     17804     17803     17805     17806     17807     17806     17808
     17809     17810     17809     17811     17812     17813     17812     17814
     17815     17816     17815     17817     17818     17819     17818     17820
     17821     17822     17821     17823     17824     17825     17824     17826
     17827     17828     17827     17829     17830     17831     17830     17832
     17833     17834     17833     17835     17836     17837     17836     17838
     17839     17840     17839     17841     17842     17843     17842     17844
     17845     17846     17845     17847     17848     17849     17848     17850
     17851     17852     17851     17853     17854     17855     17854     17856
     17857     17858     17857     17859     17860     17861     17860     17862
     17863     17864     17863     17865     17866     17867     17866     17868
     17869     17870     17869     17871     17872     17873     17872     17874
     17875     17876     17875     17877     17878     17879     17878     17880
     17881     17882     17881     17883     17884     17885     17884     17886
     17887     17888     17887     17889     17890     17891     17890     17892
     17893     17894     17893     17895     17896     17897     17896     17898
     17899     17900     17899     17901     17902     17903     17902     17904
     17905     17906     17905     17907     17908     17909     17908     17910
     17911     17912     17911     17913     17914     17915     17914     17916
     17917     17918     17917     17919     17920     17921     17920     17922
     17923     17924     17923     17925     17926     17927     17926     17928
     17929     17930     17929     17931     17932     17933     17932     17934
     17935     17936     17935     17937     17938     17939     17938     17940
     17941     17942     17941     17943     17944     17945     17944     17946
     17947     17948     17947     17949     17950     17951     17950     17952
     17953     17954     17953     17955     17956     17957     17956     17958
     17959     17960     17959     17961     17962     17963     17962     17964
     17965     17966     17965     17967     17968     17969     17968     17970
     17971     17972     17971     17973     17974     17975     17974     17976
     17977     17978     17977     17979     17980     17981     17980     17982
     17983     17984     17983     17985     17986     17987     17986     17988
     17989     17990     17989     17991     17992     17993     17992     17994
     17995     17996     17995     17997     17998     17999     17998     18000
     18001     18002     18001     18003     18004     18005     18004     18006
     18007     18008     18007     18009     18010     18011     18010     18012
     18013     18014     18013     18015     18016     18017     18016     18018
     18019     18020     18019     18021     18022     18023     18022     18024
     18025     18026     18025     18027     18028     18029     18028     18030
     18031     18032     18031     18033     18034     18035     18034     18036
     18037     18038     18037     18039     18040     18041     18040     18042
     18043     18044     18043     18045     18046     18047     18046     18048
     18049     18050     18049     18051     18052     18053     18052     18054
     18055     18056     18055     18057     18058     18059     18058     18060
     18061     18062     18061     18063     18064     18065     18064     18066
     18067     18068     18067     18069     18070     18071     18070     18072
     18073     18074     18073     18075     18076     18077     18076     18078
     18079     18080     18079     18081     18082     18083     18082     18084
     18085     18086     18085     18087     18088     18089     18088     18090
     18091     18092     18091     18093     18094     18095     18094     18096
     18097     18098     18097     18099     18100     18101     18100     18102
     18103     18104     18103     18105     18106     18107     18106     18108
     18109     18110     18109     18111     18112     18113     18112     18114
     18115     18116     18115     18117     18118     18119     18118     18120
     18121     18122     18121     18123     18124     18125     18124     18126
     18127     18128     18127     18129     18130     18131     18130     18132
     18133     18134     18133     18135     18136     18137     18136     18138
     18139     18140     18139     18141     18142     18143     18142     18144
     18145     18146     18145     18147     18148     18149     18148     18150
     18151     18152     18151     18153     18154     18155     18154     18156
     18157     18158     18157     18159     18160     18161     18160     18162
     18163     18164     18163     18165     18166     18167     18166     18168
     18169     18170     18169     18171     18172     18173     18172     18174
     18175     18176     18175     18177     18178     18179     18178     18180
     18181     18182     18181     18183     18184     18185     18184     18186
     18187     18188     18187     18189     18190     18191     18190     18192
     18193     18194     18193     18195     18196     18197     18196     18198
     18199     18200     18199     18201     18202     18203     18202     18204
     18205     18206     18205     18207     18208     18209     18208     18210
     18211     18212     18211     18213     18214     18215     18214     18216
     18217     18218     18217     18219     18220     18221     18220     18222
     18223     18224     18223     18225     18226     18227     18226     18228
     18229     18230     18229     18231     18232     18233     18232     18234
     18235     18236     18235     18237     18238     18239     18238     18240
     18241     18242     18241     18243     18244     18245     18244     18246
     18247     18248     18247     18249     18250     18251     18250     18252
     18253     18254     18253     18255     18256     18257     18256     18258
     18259     18260     18259     18261     18262     18263     18262     18264
     18265     18266     18265     18267     18268     18269     18268     18270
     18271     18272     18271     18273     18274     18275     18274     18276
     18277     18278     18277     18279     18280     18281     18280     18282
     18283     18284     18283     18285     18286     18287     18286     18288
     18289     18290     18289     18291     18292     18293     18292     18294
     18295     18296     18295     18297     18298     18299     18298     18300
     18301     18302     18301     18303     18304     18305     18304     18306
     18307     18308     18307     18309     18310     18311     18310     18312
     18313     18314     18313     18315     18316     18317     18316     18318
     18319     18320     18319     18321     18322     18323     18322     18324
     18325     18326     18325     18327     18328     18329     18328     18330
     18331     18332     18331     18333     18334     18335     18334     18336
     18337     18338     18337     18339     18340     18341     18340     18342
     18343     18344     18343     18345     18346     18347     18346     18348
     18349     18350     18349     18351     18352     18353     18352     18354
     18355     18356     18355     18357     18358     18359     18358     18360
     18361     18362     18361     18363     18364     18365     18364     18366
     18367     18368     18367     18369     18370     18371     18370     18372
     18373     18374     18373     18375     18376     18377     18376     18378
     18379     18380     18379     18381     18382     18383     18382     18384
     18385     18386     18385     18387     18388     18389     18388     18390
     18391     18392     18391     18393     18394     18395     18394     18396
     18397     18398     18397     18399     18400     18401     18400     18402
     18403     18404     18403     18405     18406     18407     18406     18408
     18409     18410     18409     18411     18412     18413     18412     18414
     18415     18416     18415     18417     18418     18419     18418     18420
     18421     18422     18421     18423     18424     18425     18424     18426
     18427     18428     18427     18429     18430     18431     18430     18432
     18433     18434     18433     18435     18436     18437     18436     18438
     18439     18440     18439     18441     18442     18443     18442     18444
     18445     18446     18445     18447     18448     18449     18448     18450
     18451     18452     18451     18453     18454     18455     18454     18456
     18457     18458     18457     18459     18460     18461     18460     18462
     18463     18464     18463     18465     18466     18467     18466     18468
     18469     18470     18469     18471     18472     18473     18472     18474
     18475     18476     18475     18477     18478     18479     18478     18480
     18481     18482     18481     18483     18484     18485     18484     18486
     18487     18488     18487     18489     18490     18491     18490     18492
     18493     18494     18493     18495     18496     18497     18496     18498
     18499     18500     18499     18501     18502     18503     18502     18504
     18505     18506     18505     18507     18508     18509     18508     18510
     18511     18512     18511     18513     18514     18515     18514     18516
     18517     18518     18517     18519     18520     18521     18520     18522
     18523     18524     18523     18525     18526     18527     18526     18528
     18529     18530     18529     18531     18532     18533     18532     18534
     18535     18536     18535     18537     18538     18539     18538     18540
     18541     18542     18541     18543     18544     18545     18544     18546
     18547     18548     18547     18549     18550     18551     18550     18552
     18553     18554     18553     18555     18556     18557     18556     18558
     18559     18560     18559     18561     18562     18563     18562     18564
     18565     18566     18565     18567     18568     18569     18568     18570
     18571     18572     18571     18573     18574     18575     18574     18576
     18577     18578     18577     18579     18580     18581     18580     18582
     18583     18584     18583     18585     18586     18587     18586     18588
     18589     18590     18589     18591     18592     18593     18592     18594
     18595     18596     18595     18597     18598     18599     18598     18600
     18601     18602     18601     18603     18604     18605     18604     18606
     18607     18608     18607     18609     18610     18611     18610     18612
     18613     18614     18613     18615     18616     18617     18616     18618
     18619     18620     18619     18621     18622     18623     18622     18624
     18625     18626     18625     18627     18628     18629     18628     18630
     18631     18632     18631     18633     18634     18635     18634     18636
     18637     18638     18637     18639     18640     18641     18640     18642
     18643     18644     18643     18645     18646     18647     18646     18648
     18649     18650     18649     18651     18652     18653     18652     18654
     18655     18656     18655     18657     18658     18659     18658     18660
     18661     18662     18661     18663     18664     18665     18664     18666
     18667     18668     18667     18669     18670     18671     18670     18672
     18673     18674     18673     18675     18676     18677     18676     18678
     18679     18680     18679     18681     18682     18683     18682     18684
     18685     18686     18685     18687     18688     18689     18688     18690
     18691     18692     18691     18693     18694     18695     18694     18696
     18697     18698     18697     18699     18700     18701     18700     18702
     18703     18704     18703     18705     18706     18707     18706     18708
     18709     18710     18709     18711     18712     18713     18712     18714
     18715     18716     18715     18717     18718     18719     18718     18720
     18721     18722     18721     18723     18724     18725     18724     18726
     18727     18728     18727     18729     18730     18731     18730     18732
     18733     18734     18733     18735     18736     18737     18736     18738
     18739     18740     18739     18741     18742     18743     18742     18744
     18745     18746     18745     18747     18748     18749     18748     18750
     18751     18752     18751     18753     18754     18755     18754     18756
     18757     18758     18757     18759     18760     18761     18760     18762
     18763     18764     18763     18765     18766     18767     18766     18768
     18769     18770     18769     18771     18772     18773     18772     18774
     18775     18776     18775     18777     18778     18779     18778     18780
     18781     18782     18781     18783     18784     18785     18784     18786
     18787     18788     18787     18789     18790     18791     18790     18792
     18793     18794     18793     18795     18796     18797     18796     18798
     18799     18800     18799     18801     18802     18803     18802     18804
     18805     18806     18805     18807     18808     18809     18808     18810
     18811     18812     18811     18813     18814     18815     18814     18816
     18817     18818     18817     18819     18820     18821     18820     18822
     18823     18824     18823     18825     18826     18827     18826     18828
     18829     18830     18829     18831     18832     18833     18832     18834
     18835     18836     18835     18837     18838     18839     18838     18840
     18841     18842     18841     18843     18844     18845     18844     18846
     18847     18848     18847     18849     18850     18851     18850     18852
     18853     18854     18853     18855     18856     18857     18856     18858
     18859     18860     18859     18861     18862     18863     18862     18864
     18865     18866     18865     18867     18868     18869     18868     18870
     18871     18872     18871     18873     18874     18875     18874     18876
     18877     18878     18877     18879     18880     18881     18880     18882
     18883     18884     18883     18885     18886     18887     18886     18888
     18889     18890     18889     18891     18892     18893     18892     18894
     18895     18896     18895     18897     18898     18899     18898     18900
     18901     18902     18901     18903     18904     18905     18904     18906
     18907     18908     18907     18909     18910     18911     18910     18912
     18913     18914     18913     18915     18916     18917     18916     18918
     18919     18920     18919     18921     18922     18923     18922     18924
     18925     18926     18925     18927     18928     18929     18928     18930
     18931     18932     18931     18933     18934     18935     18934     18936
     18937     18938     18937     18939     18940     18941     18940     18942
     18943     18944     18943     18945     18946     18947     18946     18948
     18949     18950     18949     18951     18952     18953     18952     18954
     18955     18956     18955     18957     18958     18959     18958     18960
     18961     18962     18961     18963     18964     18965     18964     18966
     18967     18968     18967     18969     18970     18971     18970     18972
     18973     18974     18973     18975     18976     18977     18976     18978
     18979     18980     18979     18981     18982     18983     18982     18984
     18985     18986     18985     18987     18988     18989     18988     18990
     18991     18992     18991     18993     18994     18995     18994     18996
     18997     18998     18997     18999     19000     19001     19000     19002
     19003     19004     19003     19005     19006     19007     19006     19008
     19009     19010     19009     19011     19012     19013     19012     19014
     19015     19016     19015     19017     19018     19019     19018     19020
     19021     19022     19021     19023     19024     19025     19024     19026
     19027     19028     19027     19029     19030     19031     19030     19032
     19033     19034     19033     19035     19036     19037     19036     19038
     19039     19040     19039     19041     19042     19043     19042     19044
     19045     19046     19045     19047     19048     19049     19048     19050
     19051     19052     19051     19053     19054     19055     19054     19056
     19057     19058     19057     19059     19060     19061     19060     19062
     19063     19064     19063     19065     19066     19067     19066     19068
     19069     19070     19069     19071     19072     19073     19072     19074
     19075     19076     19075     19077     19078     19079     19078     19080
     19081     19082     19081     19083     19084     19085     19084     19086
     19087     19088     19087     19089     19090     19091     19090     19092
     19093     19094     19093     19095     19096     19097     19096     19098
     19099     19100     19099     19101     19102     19103     19102     19104
     19105     19106     19105     19107     19108     19109     19108     19110
     19111     19112     19111     19113     19114     19115     19114     19116
     19117     19118     19117     19119     19120     19121     19120     19122
     19123     19124     19123     19125     19126     19127     19126     19128
     19129     19130     19129     19131     19132     19133     19132     19134
     19135     19136     19135     19137     19138     19139     19138     19140
     19141     19142     19141     19143     19144     19145     19144     19146
     19147     19148     19147     19149     19150     19151     19150     19152
     19153     19154     19153     19155     19156     19157     19156     19158
     19159     19160     19159     19161     19162     19163     19162     19164
     19165     19166     19165     19167     19168     19169     19168     19170
     19171     19172     19171     19173     19174     19175     19174     19176
     19177     19178     19177     19179     19180     19181     19180     19182
     19183     19184     19183     19185     19186     19187     19186     19188
     19189     19190     19189     19191     19192     19193     19192     19194
     19195     19196     19195     19197     19198     19199     19198     19200
     19201     19202     19201     19203     19204     19205     19204     19206
     19207     19208     19207     19209     19210     19211     19210     19212
     19213     19214     19213     19215     19216     19217     19216     19218
     19219     19220     19219     19221     19222     19223     19222     19224
     19225     19226     19225     19227     19228     19229     19228     19230
     19231     19232     19231     19233     19234     19235     19234     19236
     19237     19238     19237     19239     19240     19241     19240     19242
     19243     19244     19243     19245     19246     19247     19246     19248
     19249     19250     19249     19251     19252     19253     19252     19254
     19255     19256     19255     19257     19258     19259     19258     19260
     19261     19262     19261     19263     19264     19265     19264     19266
     19267     19268     19267     19269     19270     19271     19270     19272
     19273     19274     19273     19275     19276     19277     19276     19278
     19279     19280     19279     19281     19282     19283     19282     19284
     19285     19286     19285     19287     19288     19289     19288     19290
     19291     19292     19291     19293     19294     19295     19294     19296
     19297     19298     19297     19299     19300     19301     19300     19302
     19303     19304     19303     19305     19306     19307     19306     19308
     19309     19310     19309     19311     19312     19313     19312     19314
     19315     19316     19315     19317     19318     19319     19318     19320
     19321     19322     19321     19323     19324     19325     19324     19326
     19327     19328     19327     19329     19330     19331     19330     19332
     19333     19334     19333     19335     19336     19337     19336     19338
     19339     19340     19339     19341     19342     19343     19342     19344
     19345     19346     19345     19347     19348     19349     19348     19350
     19351     19352     19351     19353     19354     19355     19354     19356
     19357     19358     19357     19359     19360     19361     19360     19362
     19363     19364     19363     19365     19366     19367     19366     19368
     19369     19370     19369     19371     19372     19373     19372     19374
     19375     19376     19375     19377     19378     19379     19378     19380
     19381     19382     19381     19383     19384     19385     19384     19386
     19387     19388     19387     19389     19390     19391     19390     19392
     19393     19394     19393     19395     19396     19397     19396     19398
     19399     19400     19399     19401     19402     19403     19402     19404
     19405     19406     19405     19407     19408     19409     19408     19410
     19411     19412     19411     19413     19414     19415     19414     19416
     19417     19418     19417     19419     19420     19421     19420     19422
     19423     19424     19423     19425     19426     19427     19426     19428
     19429     19430     19429     19431     19432     19433     19432     19434
     19435     19436     19435     19437     19438     19439     19438     19440
     19441     19442     19441     19443     19444     19445     19444     19446
     19447     19448     19447     19449     19450     19451     19450     19452
     19453     19454     19453     19455     19456     19457     19456     19458
     19459     19460     19459     19461     19462     19463     19462     19464
     19465     19466     19465     19467     19468     19469     19468     19470
     19471     19472     19471     19473     19474     19475     19474     19476
     19477     19478     19477     19479     19480     19481     19480     19482
     19483     19484     19483     19485     19486     19487     19486     19488
     19489     19490     19489     19491     19492     19493     19492     19494
     19495     19496     19495     19497     19498     19499     19498     19500
     19501     19502     19501     19503     19504     19505     19504     19506
     19507     19508     19507     19509     19510     19511     19510     19512
     19513     19514     19513     19515     19516     19517     19516     19518
     19519     19520     19519     19521     19522     19523     19522     19524
     19525     19526     19525     19527     19528     19529     19528     19530
     19531     19532     19531     19533     19534     19535     19534     19536
     19537     19538     19537     19539     19540     19541     19540     19542
     19543     19544     19543     19545     19546     19547     19546     19548
     19549     19550     19549     19551     19552     19553     19552     19554
     19555     19556     19555     19557     19558     19559     19558     19560
     19561     19562     19561     19563     19564     19565     19564     19566
     19567     19568     19567     19569     19570     19571     19570     19572
     19573     19574     19573     19575     19576     19577     19576     19578
     19579     19580     19579     19581     19582     19583     19582     19584
     19585     19586     19585     19587     19588     19589     19588     19590
     19591     19592     19591     19593     19594     19595     19594     19596
     19597     19598     19597     19599     19600     19601     19600     19602
     19603     19604     19603     19605     19606     19607     19606     19608
     19609     19610     19609     19611     19612     19613     19612     19614
     19615     19616     19615     19617     19618     19619     19618     19620
     19621     19622     19621     19623     19624     19625     19624     19626
     19627     19628     19627     19629     19630     19631     19630     19632
     19633     19634     19633     19635     19636     19637     19636     19638
     19639     19640     19639     19641     19642     19643     19642     19644
     19645     19646     19645     19647     19648     19649     19648     19650
     19651     19652     19651     19653     19654     19655     19654     19656
     19657     19658     19657     19659     19660     19661     19660     19662
     19663     19664     19663     19665     19666     19667     19666     19668
     19669     19670     19669     19671     19672     19673     19672     19674
     19675     19676     19675     19677     19678     19679     19678     19680
     19681     19682     19681     19683     19684     19685     19684     19686
     19687     19688     19687     19689     19690     19691     19690     19692
     19693     19694     19693     19695     19696     19697     19696     19698
     19699     19700     19699     19701     19702     19703     19702     19704
     19705     19706     19705     19707     19708     19709     19708     19710
     19711     19712     19711     19713     19714     19715     19714     19716
     19717     19718     19717     19719     19720     19721     19720     19722
     19723     19724     19723     19725     19726     19727     19726     19728
     19729     19730     19729     19731     19732     19733     19732     19734
     19735     19736     19735     19737     19738     19739     19738     19740
     19741     19742     19741     19743     19744     19745     19744     19746
     19747     19748     19747     19749     19750     19751     19750     19752
     19753     19754     19753     19755     19756     19757     19756     19758
     19759     19760     19759     19761     19762     19763     19762     19764
     19765     19766     19765     19767     19768     19769     19768     19770
     19771     19772     19771     19773     19774     19775     19774     19776
     19777     19778     19777     19779     19780     19781     19780     19782
     19783     19784     19783     19785     19786     19787     19786     19788
     19789     19790     19789     19791     19792     19793     19792     19794
     19795     19796     19795     19797     19798     19799     19798     19800
     19801     19802     19801     19803     19804     19805     19804     19806
     19807     19808     19807     19809     19810     19811     19810     19812
     19813     19814     19813     19815     19816     19817     19816     19818
     19819     19820     19819     19821     19822     19823     19822     19824
     19825     19826     19825     19827     19828     19829     19828     19830
     19831     19832     19831     19833     19834     19835     19834     19836
     19837     19838     19837     19839     19840     19841     19840     19842
     19843     19844     19843     19845     19846     19847     19846     19848
     19849     19850     19849     19851     19852     19853     19852     19854
     19855     19856     19855     19857     19858     19859     19858     19860
     19861     19862     19861     19863     19864     19865     19864     19866
     19867     19868     19867     19869     19870     19871     19870     19872
     19873     19874     19873     19875     19876     19877     19876     19878
     19879     19880     19879     19881     19882     19883     19882     19884
     19885     19886     19885     19887     19888     19889     19888     19890
     19891     19892     19891     19893     19894     19895     19894     19896
     19897     19898     19897     19899     19900     19901     19900     19902
     19903     19904     19903     19905     19906     19907     19906     19908
     19909     19910     19909     19911     19912     19913     19912     19914
     19915     19916     19915     19917     19918     19919     19918     19920
     19921     19922     19921     19923     19924     19925     19924     19926
     19927     19928     19927     19929     19930     19931     19930     19932
     19933     19934     19933     19935     19936     19937     19936     19938
     19939     19940     19939     19941     19942     19943     19942     19944
     19945     19946     19945     19947     19948     19949     19948     19950
     19951     19952     19951     19953     19954     19955     19954     19956
     19957     19958     19957     19959     19960     19961     19960     19962
     19963     19964     19963     19965     19966     19967     19966     19968
     19969     19970     19969     19971     19972     19973     19972     19974
     19975     19976     19975     19977     19978     19979     19978     19980
     19981     19982     19981     19983     19984     19985     19984     19986
     19987     19988     19987     19989     19990     19991     19990     19992
     19993     19994     19993     19995     19996     19997     19996     19998
     19999     20000     19999     20001     20002     20003     20002     20004
     20005     20006     20005     20007     20008     20009     20008     20010
     20011     20012     20011     20013     20014     20015     20014     20016
     20017     20018     20017     20019     20020     20021     20020     20022
     20023     20024     20023     20025     20026     20027     20026     20028
     20029     20030     20029     20031     20032     20033     20032     20034
     20035     20036     20035     20037     20038     20039     20038     20040
     20041     20042     20041     20043     20044     20045     20044     20046
     20047     20048     20047     20049     20050     20051     20050     20052
     20053     20054     20053     20055     20056     20057     20056     20058
     20059     20060     20059     20061     20062     20063     20062     20064
     20065     20066     20065     20067     20068     20069     20068     20070
     20071     20072     20071     20073     20074     20075     20074     20076
     20077     20078     20077     20079     20080     20081     20080     20082
     20083     20084     20083     20085     20086     20087     20086     20088
     20089     20090     20089     20091     20092     20093     20092     20094
     20095     20096     20095     20097     20098     20099     20098     20100
     20101     20102     20101     20103     20104     20105     20104     20106
     20107     20108     20107     20109     20110     20111     20110     20112
     20113     20114     20113     20115     20116     20117     20116     20118
     20119     20120     20119     20121     20122     20123     20122     20124
     20125     20126     20125     20127     20128     20129     20128     20130
     20131     20132     20131     20133     20134     20135     20134     20136
     20137     20138     20137     20139     20140     20141     20140     20142
     20143     20144     20143     20145     20146     20147     20146     20148
     20149     20150     20149     20151     20152     20153     20152     20154
     20155     20156     20155     20157     20158     20159     20158     20160
     20161     20162     20161     20163     20164     20165     20164     20166
     20167     20168     20167     20169     20170     20171     20170     20172
     20173     20174     20173     20175     20176     20177     20176     20178
     20179     20180     20179     20181     20182     20183     20182     20184
     20185     20186     20185     20187     20188     20189     20188     20190
     20191     20192     20191     20193     20194     20195     20194     20196
     20197     20198     20197     20199     20200     20201     20200     20202
     20203     20204     20203     20205     20206     20207     20206     20208
     20209     20210     20209     20211     20212     20213     20212     20214
     20215     20216     20215     20217     20218     20219     20218     20220
     20221     20222     20221     20223     20224     20225     20224     20226
     20227     20228     20227     20229     20230     20231     20230     20232
     20233     20234     20233     20235     20236     20237     20236     20238
     20239     20240     20239     20241     20242     20243     20242     20244
     20245     20246     20245     20247     20248     20249     20248     20250
     20251     20252     20251     20253     20254     20255     20254     20256
     20257     20258     20257     20259     20260     20261     20260     20262
     20263     20264     20263     20265     20266     20267     20266     20268
     20269     20270     20269     20271     20272     20273     20272     20274
     20275     20276     20275     20277     20278     20279     20278     20280
     20281     20282     20281     20283     20284     20285     20284     20286
     20287     20288     20287     20289     20290     20291     20290     20292
     20293     20294     20293     20295     20296     20297     20296     20298
     20299     20300     20299     20301     20302     20303     20302     20304
     20305     20306     20305     20307     20308     20309     20308     20310
     20311     20312     20311     20313     20314     20315     20314     20316
     20317     20318     20317     20319     20320     20321     20320     20322
     20323     20324     20323     20325     20326     20327     20326     20328
     20329     20330     20329     20331     20332     20333     20332     20334
     20335     20336     20335     20337     20338     20339     20338     20340
     20341     20342     20341     20343     20344     20345     20344     20346
     20347     20348     20347     20349     20350     20351     20350     20352
     20353     20354     20353     20355     20356     20357     20356     20358
     20359     20360     20359     20361     20362     20363     20362     20364
     20365     20366     20365     20367     20368     20369     20368     20370
     20371     20372     20371     20373     20374     20375     20374     20376
     20377     20378     20377     20379     20380     20381     20380     20382
     20383     20384     20383     20385     20386     20387     20386     20388
     20389     20390     20389     20391     20392     20393     20392     20394
     20395     20396     20395     20397     20398     20399     20398     20400
     20401     20402     20401     20403     20404     20405     20404     20406
     20407     20408     20407     20409     20410     20411     20410     20412
     20413     20414     20413     20415     20416     20417     20416     20418
     20419     20420     20419     20421     20422     20423     20422     20424
     20425     20426     20425     20427     20428     20429     20428     20430
     20431     20432     20431     20433     20434     20435     20434     20436
     20437     20438     20437     20439     20440     20441     20440     20442
     20443     20444     20443     20445     20446     20447     20446     20448
     20449     20450     20449     20451     20452     20453     20452     20454
     20455     20456     20455     20457     20458     20459     20458     20460
     20461     20462     20461     20463     20464     20465     20464     20466
     20467     20468     20467     20469     20470     20471     20470     20472
     20473     20474     20473     20475     20476     20477     20476     20478
     20479     20480     20479     20481     20482     20483     20482     20484
     20485     20486     20485     20487     20488     20489     20488     20490
     20491     20492     20491     20493     20494     20495     20494     20496
     20497     20498     20497     20499     20500     20501     20500     20502
     20503     20504     20503     20505     20506     20507     20506     20508
     20509     20510     20509     20511     20512     20513     20512     20514
     20515     20516     20515     20517     20518     20519     20518     20520
     20521     20522     20521     20523     20524     20525     20524     20526
     20527     20528     20527     20529     20530     20531     20530     20532
     20533     20534     20533     20535     20536     20537     20536     20538
     20539     20540     20539     20541     20542     20543     20542     20544
     20545     20546     20545     20547     20548     20549     20548     20550
     20551     20552     20551     20553     20554     20555     20554     20556
     20557     20558     20557     20559     20560     20561     20560     20562
     20563     20564     20563     20565     20566     20567     20566     20568
     20569     20570     20569     20571     20572     20573     20572     20574
     20575     20576     20575     20577     20578     20579     20578     20580
     20581     20582     20581     20583     20584     20585     20584     20586
     20587     20588     20587     20589     20590     20591     20590     20592
     20593     20594     20593     20595     20596     20597     20596     20598
     20599     20600     20599     20601     20602     20603     20602     20604
     20605     20606     20605     20607     20608     20609     20608     20610
     20611     20612     20611     20613     20614     20615     20614     20616
     20617     20618     20617     20619     20620     20621     20620     20622
     20623     20624     20623     20625     20626     20627     20626     20628
     20629     20630     20629     20631     20632     20633     20632     20634
     20635     20636     20635     20637     20638     20639     20638     20640
     20641     20642     20641     20643     20644     20645     20644     20646
     20647     20648     20647     20649     20650     20651     20650     20652
     20653     20654     20653     20655     20656     20657     20656     20658
     20659     20660     20659     20661     20662     20663     20662     20664
     20665     20666     20665     20667     20668     20669     20668     20670
     20671     20672     20671     20673     20674     20675     20674     20676
     20677     20678     20677     20679     20680     20681     20680     20682
     20683     20684     20683     20685     20686     20687     20686     20688
     20689     20690     20689     20691     20692     20693     20692     20694
     20695     20696     20695     20697     20698     20699     20698     20700
     20701     20702     20701     20703     20704     20705     20704     20706
     20707     20708     20707     20709     20710     20711     20710     20712
     20713     20714     20713     20715     20716     20717     20716     20718
     20719     20720     20719     20721     20722     20723     20722     20724
     20725     20726     20725     20727     20728     20729     20728     20730
     20731     20732     20731     20733     20734     20735     20734     20736
     20737     20738     20737     20739     20740     20741     20740     20742
     20743     20744     20743     20745     20746     20747     20746     20748
     20749     20750     20749     20751     20752     20753     20752     20754
     20755     20756     20755     20757     20758     20759     20758     20760
     20761     20762     20761     20763     20764     20765     20764     20766
     20767     20768     20767     20769     20770     20771     20770     20772
     20773     20774     20773     20775     20776     20777     20776     20778
     20779     20780     20779     20781     20782     20783     20782     20784
     20785     20786     20785     20787     20788     20789     20788     20790
     20791     20792     20791     20793     20794     20795     20794     20796
     20797     20798     20797     20799     20800     20801     20800     20802
     20803     20804     20803     20805     20806     20807     20806     20808
     20809     20810     20809     20811     20812     20813     20812     20814
     20815     20816     20815     20817     20818     20819     20818     20820
     20821     20822     20821     20823     20824     20825     20824     20826
     20827     20828     20827     20829     20830     20831     20830     20832
     20833     20834     20833     20835     20836     20837     20836     20838
     20839     20840     20839     20841     20842     20843     20842     20844
     20845     20846     20845     20847     20848     20849     20848     20850
     20851     20852     20851     20853     20854     20855     20854     20856
     20857     20858     20857     20859     20860     20861     20860     20862
     20863     20864     20863     20865     20866     20867     20866     20868
     20869     20870     20869     20871     20872     20873     20872     20874
     20875     20876     20875     20877     20878     20879     20878     20880
     20881     20882     20881     20883     20884     20885     20884     20886
     20887     20888     20887     20889     20890     20891     20890     20892
     20893     20894     20893     20895     20896     20897     20896     20898
     20899     20900     20899     20901     20902     20903     20902     20904
     20905     20906     20905     20907     20908     20909     20908     20910
     20911     20912     20911     20913     20914     20915     20914     20916
     20917     20918     20917     20919     20920     20921     20920     20922
     20923     20924     20923     20925     20926     20927     20926     20928
     20929     20930     20929     20931     20932     20933     20932     20934
     20935     20936     20935     20937     20938     20939     20938     20940
     20941     20942     20941     20943     20944     20945     20944     20946
     20947     20948     20947     20949     20950     20951     20950     20952
     20953     20954     20953     20955     20956     20957     20956     20958
     20959     20960     20959     20961     20962     20963     20962     20964
     20965     20966     20965     20967     20968     20969     20968     20970
     20971     20972     20971     20973     20974     20975     20974     20976
     20977     20978     20977     20979     20980     20981     20980     20982
     20983     20984     20983     20985     20986     20987     20986     20988
     20989     20990     20989     20991     20992     20993     20992     20994
     20995     20996     20995     20997     20998     20999     20998     21000
     21001     21002     21001     21003     21004     21005     21004     21006
     21007     21008     21007     21009     21010     21011     21010     21012
     21013     21014     21013     21015     21016     21017     21016     21018
     21019     21020     21019     21021     21022     21023     21022     21024
     21025     21026     21025     21027     21028     21029     21028     21030
     21031     21032     21031     21033     21034     21035     21034     21036
     21037     21038     21037     21039     21040     21041     21040     21042
     21043     21044     21043     21045     21046     21047     21046     21048
     21049     21050     21049     21051     21052     21053     21052     21054
     21055     21056     21055     21057     21058     21059     21058     21060
     21061     21062     21061     21063     21064     21065     21064     21066
     21067     21068     21067     21069     21070     21071     21070     21072
     21073     21074     21073     21075     21076     21077     21076     21078
     21079     21080     21079     21081     21082     21083     21082     21084
     21085     21086     21085     21087     21088     21089     21088     21090
     21091     21092     21091     21093     21094     21095     21094     21096
     21097     21098     21097     21099     21100     21101     21100     21102
     21103     21104     21103     21105     21106     21107     21106     21108
     21109     21110     21109     21111     21112     21113     21112     21114
     21115     21116     21115     21117     21118     21119     21118     21120
     21121     21122     21121     21123     21124     21125     21124     21126
     21127     21128     21127     21129     21130     21131     21130     21132
     21133     21134     21133     21135     21136     21137     21136     21138
     21139     21140     21139     21141     21142     21143     21142     21144
     21145     21146     21145     21147     21148     21149     21148     21150
     21151     21152     21151     21153     21154     21155     21154     21156
     21157     21158     21157     21159     21160     21161     21160     21162
     21163     21164     21163     21165     21166     21167     21166     21168
     21169     21170     21169     21171     21172     21173     21172     21174
     21175     21176     21175     21177     21178     21179     21178     21180
     21181     21182     21181     21183     21184     21185     21184     21186
     21187     21188     21187     21189     21190     21191     21190     21192
     21193     21194     21193     21195     21196     21197     21196     21198
     21199     21200     21199     21201     21202     21203     21202     21204
     21205     21206     21205     21207     21208     21209     21208     21210
     21211     21212     21211     21213     21214     21215     21214     21216
     21217     21218     21217     21219     21220     21221     21220     21222
     21223     21224     21223     21225     21226     21227     21226     21228
     21229     21230     21229     21231     21232     21233     21232     21234
     21235     21236     21235     21237     21238     21239     21238     21240
     21241     21242     21241     21243     21244     21245     21244     21246
     21247     21248     21247     21249     21250     21251     21250     21252
     21253     21254     21253     21255     21256     21257     21256     21258
     21259     21260     21259     21261     21262     21263     21262     21264
     21265     21266     21265     21267     21268     21269     21268     21270
     21271     21272     21271     21273     21274     21275     21274     21276
     21277     21278     21277     21279     21280     21281     21280     21282
     21283     21284     21283     21285     21286     21287     21286     21288
     21289     21290     21289     21291     21292     21293     21292     21294
     21295     21296     21295     21297     21298     21299     21298     21300
     21301     21302     21301     21303     21304     21305     21304     21306
     21307     21308     21307     21309     21310     21311     21310     21312
     21313     21314     21313     21315     21316     21317     21316     21318
     21319     21320     21319     21321     21322     21323     21322     21324
     21325     21326     21325     21327     21328     21329     21328     21330
     21331     21332     21331     21333     21334     21335     21334     21336
     21337     21338     21337     21339     21340     21341     21340     21342
     21343     21344     21343     21345     21346     21347     21346     21348
     21349     21350     21349     21351     21352     21353     21352     21354
     21355     21356     21355     21357     21358     21359     21358     21360
     21361     21362     21361     21363     21364     21365     21364     21366
     21367     21368     21367     21369     21370     21371     21370     21372
     21373     21374     21373     21375     21376     21377     21376     21378
     21379     21380     21379     21381     21382     21383     21382     21384
     21385     21386     21385     21387     21388     21389     21388     21390
     21391     21392     21391     21393     21394     21395     21394     21396
     21397     21398     21397     21399     21400     21401     21400     21402
     21403     21404     21403     21405     21406     21407     21406     21408
     21409     21410     21409     21411     21412     21413     21412     21414
     21415     21416     21415     21417     21418     21419     21418     21420
     21421     21422     21421     21423     21424     21425     21424     21426
     21427     21428     21427     21429     21430     21431     21430     21432
     21433     21434     21433     21435     21436     21437     21436     21438
     21439     21440     21439     21441     21442     21443     21442     21444
     21445     21446     21445     21447     21448     21449     21448     21450
     21451     21452     21451     21453     21454     21455     21454     21456
     21457     21458     21457     21459     21460     21461     21460     21462
     21463     21464     21463     21465     21466     21467     21466     21468
     21469     21470     21469     21471     21472     21473     21472     21474
     21475     21476     21475     21477     21478     21479     21478     21480
     21481     21482     21481     21483     21484     21485     21484     21486
     21487     21488     21487     21489     21490     21491     21490     21492
     21493     21494     21493     21495     21496     21497     21496     21498
     21499     21500     21499     21501     21502     21503     21502     21504
     21505     21506     21505     21507     21508     21509     21508     21510
     21511     21512     21511     21513     21514     21515     21514     21516
     21517     21518     21517     21519     21520     21521     21520     21522
     21523     21524     21523     21525     21526     21527     21526     21528
     21529     21530     21529     21531     21532     21533     21532     21534
     21535     21536     21535     21537     21538     21539     21538     21540
     21541     21542     21541     21543     21544     21545     21544     21546
     21547     21548     21547     21549     21550     21551     21550     21552
     21553     21554     21553     21555     21556     21557     21556     21558
     21559     21560     21559     21561     21562     21563     21562     21564
     21565     21566     21565     21567     21568     21569     21568     21570
     21571     21572     21571     21573     21574     21575     21574     21576
     21577     21578     21577     21579     21580     21581     21580     21582
     21583     21584     21583     21585     21586     21587     21586     21588
     21589     21590     21589     21591     21592     21593     21592     21594
     21595     21596     21595     21597     21598     21599     21598     21600
     21601     21602     21601     21603     21604     21605     21604     21606
     21607     21608     21607     21609     21610     21611     21610     21612
     21613     21614     21613     21615     21616     21617     21616     21618
     21619     21620     21619     21621     21622     21623     21622     21624
     21625     21626     21625     21627     21628     21629     21628     21630
     21631     21632     21631     21633     21634     21635     21634     21636
     21637     21638     21637     21639     21640     21641     21640     21642
     21643     21644     21643     21645     21646     21647     21646     21648
     21649     21650     21649     21651     21652     21653     21652     21654
     21655     21656     21655     21657     21658     21659     21658     21660
     21661     21662     21661     21663     21664     21665     21664     21666
     21667     21668     21667     21669     21670     21671     21670     21672
     21673     21674     21673     21675     21676     21677     21676     21678
     21679     21680     21679     21681     21682     21683     21682     21684
     21685     21686     21685     21687     21688     21689     21688     21690
     21691     21692     21691     21693     21694     21695     21694     21696
     21697     21698     21697     21699     21700     21701     21700     21702
     21703     21704     21703     21705     21706     21707     21706     21708
     21709     21710     21709     21711     21712     21713     21712     21714
     21715     21716     21715     21717     21718     21719     21718     21720
     21721     21722     21721     21723     21724     21725     21724     21726
     21727     21728     21727     21729     21730     21731     21730     21732
     21733     21734     21733     21735     21736     21737     21736     21738
     21739     21740     21739     21741     21742     21743     21742     21744
     21745     21746     21745     21747     21748     21749     21748     21750
     21751     21752     21751     21753     21754     21755     21754     21756
     21757     21758     21757     21759     21760     21761     21760     21762
     21763     21764     21763     21765     21766     21767     21766     21768
     21769     21770     21769     21771     21772     21773     21772     21774
     21775     21776     21775     21777     21778     21779     21778     21780
     21781     21782     21781     21783     21784     21785     21784     21786
     21787     21788     21787     21789     21790     21791     21790     21792
     21793     21794     21793     21795     21796     21797     21796     21798
     21799     21800     21799     21801     21802     21803     21802     21804
     21805     21806     21805     21807     21808     21809     21808     21810
     21811     21812     21811     21813     21814     21815     21814     21816
     21817     21818     21817     21819     21820     21821     21820     21822
     21823     21824     21823     21825     21826     21827     21826     21828
     21829     21830     21829     21831     21832     21833     21832     21834
     21835     21836     21835     21837     21838     21839     21838     21840
     21841     21842     21841     21843     21844     21845     21844     21846
     21847     21848     21847     21849     21850     21851     21850     21852
     21853     21854     21853     21855     21856     21857     21856     21858
     21859     21860     21859     21861     21862     21863     21862     21864
     21865     21866     21865     21867     21868     21869     21868     21870
     21871     21872     21871     21873     21874     21875     21874     21876
     21877     21878     21877     21879     21880     21881     21880     21882
     21883     21884     21883     21885     21886     21887     21886     21888
     21889     21890     21889     21891     21892     21893     21892     21894
     21895     21896     21895     21897     21898     21899     21898     21900
     21901     21902     21901     21903     21904     21905     21904     21906
     21907     21908     21907     21909     21910     21911     21910     21912
     21913     21914     21913     21915     21916     21917     21916     21918
     21919     21920     21919     21921     21922     21923     21922     21924
     21925     21926     21925     21927     21928     21929     21928     21930
     21931     21932     21931     21933     21934     21935     21934     21936
     21937     21938     21937     21939     21940     21941     21940     21942
     21943     21944     21943     21945     21946     21947     21946     21948
     21949     21950     21949     21951     21952     21953     21952     21954
     21955     21956     21955     21957     21958     21959     21958     21960
     21961     21962     21961     21963     21964     21965     21964     21966
     21967     21968     21967     21969     21970     21971     21970     21972
     21973     21974     21973     21975     21976     21977     21976     21978
     21979     21980     21979     21981     21982     21983     21982     21984
     21985     21986     21985     21987     21988     21989     21988     21990
     21991     21992     21991     21993     21994     21995     21994     21996
     21997     21998     21997     21999     22000     22001     22000     22002
     22003     22004     22003     22005     22006     22007     22006     22008
     22009     22010     22009     22011     22012     22013     22012     22014
     22015     22016     22015     22017     22018     22019     22018     22020
     22021     22022     22021     22023     22024     22025     22024     22026
     22027     22028     22027     22029     22030     22031     22030     22032
     22033     22034     22033     22035     22036     22037     22036     22038
     22039     22040     22039     22041     22042     22043     22042     22044
     22045     22046     22045     22047     22048     22049     22048     22050
     22051     22052     22051     22053     22054     22055     22054     22056
     22057     22058     22057     22059     22060     22061     22060     22062
     22063     22064     22063     22065     22066     22067     22066     22068
     22069     22070     22069     22071     22072     22073     22072     22074
     22075     22076     22075     22077     22078     22079     22078     22080
     22081     22082     22081     22083     22084     22085     22084     22086
     22087     22088     22087     22089     22090     22091     22090     22092
     22093     22094     22093     22095     22096     22097     22096     22098
     22099     22100     22099     22101     22102     22103     22102     22104
     22105     22106     22105     22107     22108     22109     22108     22110
     22111     22112     22111     22113     22114     22115     22114     22116
     22117     22118     22117     22119     22120     22121     22120     22122
     22123     22124     22123     22125     22126     22127     22126     22128
     22129     22130     22129     22131     22132     22133     22132     22134
     22135     22136     22135     22137     22138     22139     22138     22140
     22141     22142     22141     22143     22144     22145     22144     22146
     22147     22148     22147     22149     22150     22151     22150     22152
     22153     22154     22153     22155     22156     22157     22156     22158
     22159     22160     22159     22161     22162     22163     22162     22164
     22165     22166     22165     22167     22168     22169     22168     22170
     22171     22172     22171     22173     22174     22175     22174     22176
     22177     22178     22177     22179     22180     22181     22180     22182
     22183     22184     22183     22185     22186     22187     22186     22188
     22189     22190     22189     22191     22192     22193     22192     22194
     22195     22196     22195     22197     22198     22199     22198     22200
     22201     22202     22201     22203     22204     22205     22204     22206
     22207     22208     22207     22209     22210     22211     22210     22212
     22213     22214     22213     22215     22216     22217     22216     22218
     22219     22220     22219     22221     22222     22223     22222     22224
     22225     22226     22225     22227     22228     22229     22228     22230
     22231     22232     22231     22233     22234     22235     22234     22236
     22237     22238     22237     22239     22240     22241     22240     22242
     22243     22244     22243     22245     22246     22247     22246     22248
     22249     22250     22249     22251     22252     22253     22252     22254
     22255     22256     22255     22257     22258     22259     22258     22260
     22261     22262     22261     22263     22264     22265     22264     22266
     22267     22268     22267     22269     22270     22271     22270     22272
     22273     22274     22273     22275     22276     22277     22276     22278
     22279     22280     22279     22281     22282     22283     22282     22284
     22285     22286     22285     22287     22288     22289     22288     22290
     22291     22292     22291     22293     22294     22295     22294     22296
     22297     22298     22297     22299     22300     22301     22300     22302
     22303     22304     22303     22305     22306     22307     22306     22308
     22309     22310     22309     22311     22312     22313     22312     22314
     22315     22316     22315     22317     22318     22319     22318     22320
     22321     22322     22321     22323     22324     22325     22324     22326
     22327     22328     22327     22329     22330     22331     22330     22332
     22333     22334     22333     22335     22336     22337     22336     22338
     22339     22340     22339     22341     22342     22343     22342     22344
     22345     22346     22345     22347     22348     22349     22348     22350
     22351     22352     22351     22353     22354     22355     22354     22356
     22357     22358     22357     22359     22360     22361     22360     22362
     22363     22364     22363     22365     22366     22367     22366     22368
     22369     22370     22369     22371     22372     22373     22372     22374
     22375     22376     22375     22377     22378     22379     22378     22380
     22381     22382     22381     22383     22384     22385     22384     22386
     22387     22388     22387     22389     22390     22391     22390     22392
     22393     22394     22393     22395     22396     22397     22396     22398
     22399     22400     22399     22401     22402     22403     22402     22404
     22405     22406     22405     22407     22408     22409     22408     22410
     22411     22412     22411     22413     22414     22415     22414     22416
     22417     22418     22417     22419     22420     22421     22420     22422
     22423     22424     22423     22425     22426     22427     22426     22428
     22429     22430     22429     22431     22432     22433     22432     22434
     22435     22436     22435     22437     22438     22439     22438     22440
     22441     22442     22441     22443     22444     22445     22444     22446
     22447     22448     22447     22449     22450     22451     22450     22452
     22453     22454     22453     22455     22456     22457     22456     22458
     22459     22460     22459     22461     22462     22463     22462     22464
     22465     22466     22465     22467     22468     22469     22468     22470
     22471     22472     22471     22473     22474     22475     22474     22476
     22477     22478     22477     22479     22480     22481     22480     22482
     22483     22484     22483     22485     22486     22487     22486     22488
     22489     22490     22489     22491     22492     22493     22492     22494
     22495     22496     22495     22497     22498     22499     22498     22500
     22501     22502     22501     22503     22504     22505     22504     22506
     22507     22508     22507     22509     22510     22511     22510     22512
     22513     22514     22513     22515     22516     22517     22516     22518
     22519     22520     22519     22521     22522     22523     22522     22524
     22525     22526     22525     22527     22528     22529     22528     22530
     22531     22532     22531     22533     22534     22535     22534     22536
     22537     22538     22537     22539     22540     22541     22540     22542
     22543     22544     22543     22545     22546     22547     22546     22548
     22549     22550     22549     22551     22552     22553     22552     22554
     22555     22556     22555     22557     22558     22559     22558     22560
     22561     22562     22561     22563     22564     22565     22564     22566
     22567     22568     22567     22569     22570     22571     22570     22572
     22573     22574     22573     22575     22576     22577     22576     22578
     22579     22580     22579     22581     22582     22583     22582     22584
     22585     22586     22585     22587     22588     22589     22588     22590
     22591     22592     22591     22593     22594     22595     22594     22596
     22597     22598     22597     22599     22600     22601     22600     22602
     22603     22604     22603     22605     22606     22607     22606     22608
     22609     22610     22609     22611     22612     22613     22612     22614
     22615     22616     22615     22617     22618     22619     22618     22620
     22621     22622     22621     22623     22624     22625     22624     22626
     22627     22628     22627     22629     22630     22631     22630     22632
     22633     22634     22633     22635     22636     22637     22636     22638
     22639     22640     22639     22641     22642     22643     22642     22644
     22645     22646     22645     22647     22648     22649     22648     22650
     22651     22652     22651     22653     22654     22655     22654     22656
     22657     22658     22657     22659     22660     22661     22660     22662
     22663     22664     22663     22665     22666     22667     22666     22668
     22669     22670     22669     22671     22672     22673     22672     22674
     22675     22676     22675     22677     22678     22679     22678     22680
     22681     22682     22681     22683     22684     22685     22684     22686
     22687     22688     22687     22689     22690     22691     22690     22692
     22693     22694     22693     22695     22696     22697     22696     22698
     22699     22700     22699     22701     22702     22703     22702     22704
     22705     22706     22705     22707     22708     22709     22708     22710
     22711     22712     22711     22713     22714     22715     22714     22716
     22717     22718     22717     22719     22720     22721     22720     22722
     22723     22724     22723     22725     22726     22727     22726     22728
     22729     22730     22729     22731     22732     22733     22732     22734
     22735     22736     22735     22737     22738     22739     22738     22740
     22741     22742     22741     22743     22744     22745     22744     22746
     22747     22748     22747     22749     22750     22751     22750     22752
     22753     22754     22753     22755     22756     22757     22756     22758
     22759     22760     22759     22761     22762     22763     22762     22764
     22765     22766     22765     22767     22768     22769     22768     22770
     22771     22772     22771     22773     22774     22775     22774     22776
     22777     22778     22777     22779     22780     22781     22780     22782
     22783     22784     22783     22785     22786     22787     22786     22788
     22789     22790     22789     22791     22792     22793     22792     22794
     22795     22796     22795     22797     22798     22799     22798     22800
     22801     22802     22801     22803     22804     22805     22804     22806
     22807     22808     22807     22809     22810     22811     22810     22812
     22813     22814     22813     22815     22816     22817     22816     22818
     22819     22820     22819     22821     22822     22823     22822     22824
     22825     22826     22825     22827     22828     22829     22828     22830
     22831     22832     22831     22833     22834     22835     22834     22836
     22837     22838     22837     22839     22840     22841     22840     22842
     22843     22844     22843     22845     22846     22847     22846     22848
     22849     22850     22849     22851     22852     22853     22852     22854
     22855     22856     22855     22857     22858     22859     22858     22860
     22861     22862     22861     22863     22864     22865     22864     22866
     22867     22868     22867     22869     22870     22871     22870     22872
     22873     22874     22873     22875     22876     22877     22876     22878
     22879     22880     22879     22881     22882     22883     22882     22884
     22885     22886     22885     22887     22888     22889     22888     22890
     22891     22892     22891     22893     22894     22895     22894     22896
     22897     22898     22897     22899     22900     22901     22900     22902
     22903     22904     22903     22905     22906     22907     22906     22908
     22909     22910     22909     22911     22912     22913     22912     22914
     22915     22916     22915     22917     22918     22919     22918     22920
     22921     22922     22921     22923     22924     22925     22924     22926
     22927     22928     22927     22929     22930     22931     22930     22932
     22933     22934     22933     22935     22936     22937     22936     22938
     22939     22940     22939     22941     22942     22943     22942     22944
     22945     22946     22945     22947     22948     22949     22948     22950
     22951     22952     22951     22953     22954     22955     22954     22956
     22957     22958     22957     22959     22960     22961     22960     22962
     22963     22964     22963     22965     22966     22967     22966     22968
     22969     22970     22969     22971     22972     22973     22972     22974
     22975     22976     22975     22977     22978     22979     22978     22980
     22981     22982     22981     22983     22984     22985     22984     22986
     22987     22988     22987     22989     22990     22991     22990     22992
     22993     22994     22993     22995     22996     22997     22996     22998
     22999     23000     22999     23001     23002     23003     23002     23004
     23005     23006     23005     23007     23008     23009     23008     23010
     23011     23012     23011     23013     23014     23015     23014     23016
     23017     23018     23017     23019     23020     23021     23020     23022
     23023     23024     23023     23025     23026     23027     23026     23028
     23029     23030     23029     23031     23032     23033     23032     23034
     23035     23036     23035     23037     23038     23039     23038     23040
     23041     23042     23041     23043     23044     23045     23044     23046
     23047     23048     23047     23049     23050     23051     23050     23052
     23053     23054     23053     23055     23056     23057     23056     23058
     23059     23060     23059     23061     23062     23063     23062     23064
     23065     23066     23065     23067     23068     23069     23068     23070
     23071     23072     23071     23073     23074     23075     23074     23076
     23077     23078     23077     23079     23080     23081     23080     23082
     23083     23084     23083     23085     23086     23087     23086     23088
     23089     23090     23089     23091     23092     23093     23092     23094
     23095     23096     23095     23097     23098     23099     23098     23100
     23101     23102     23101     23103     23104     23105     23104     23106
     23107     23108     23107     23109     23110     23111     23110     23112
     23113     23114     23113     23115     23116     23117     23116     23118
     23119     23120     23119     23121     23122     23123     23122     23124
     23125     23126     23125     23127     23128     23129     23128     23130
     23131     23132     23131     23133     23134     23135     23134     23136
     23137     23138     23137     23139     23140     23141     23140     23142
     23143     23144     23143     23145     23146     23147     23146     23148
     23149     23150     23149     23151     23152     23153     23152     23154
     23155     23156     23155     23157     23158     23159     23158     23160
     23161     23162     23161     23163     23164     23165     23164     23166
     23167     23168     23167     23169     23170     23171     23170     23172
     23173     23174     23173     23175     23176     23177     23176     23178
     23179     23180     23179     23181     23182     23183     23182     23184
     23185     23186     23185     23187     23188     23189     23188     23190
     23191     23192     23191     23193     23194     23195     23194     23196
     23197     23198     23197     23199     23200     23201     23200     23202
     23203     23204     23203     23205     23206     23207     23206     23208
     23209     23210     23209     23211     23212     23213     23212     23214
     23215     23216     23215     23217     23218     23219     23218     23220
     23221     23222     23221     23223     23224     23225     23224     23226
     23227     23228     23227     23229     23230     23231     23230     23232
     23233     23234     23233     23235     23236     23237     23236     23238
     23239     23240     23239     23241     23242     23243     23242     23244
     23245     23246     23245     23247     23248     23249     23248     23250
     23251     23252     23251     23253     23254     23255     23254     23256
     23257     23258     23257     23259     23260     23261     23260     23262
     23263     23264     23263     23265     23266     23267     23266     23268
     23269     23270     23269     23271     23272     23273     23272     23274
     23275     23276     23275     23277     23278     23279     23278     23280
     23281     23282     23281     23283     23284     23285     23284     23286
     23287     23288     23287     23289     23290     23291     23290     23292
     23293     23294     23293     23295     23296     23297     23296     23298
     23299     23300     23299     23301     23302     23303     23302     23304
     23305     23306     23305     23307     23308     23309     23308     23310
     23311     23312     23311     23313     23314     23315     23314     23316
     23317     23318     23317     23319     23320     23321     23320     23322
     23323     23324     23323     23325     23326     23327     23326     23328
     23329     23330     23329     23331     23332     23333     23332     23334
     23335     23336     23335     23337     23338     23339     23338     23340
     23341     23342     23341     23343     23344     23345     23344     23346
     23347     23348     23347     23349     23350     23351     23350     23352
     23353     23354     23353     23355     23356     23357     23356     23358
     23359     23360     23359     23361     23362     23363     23362     23364
     23365     23366     23365     23367     23368     23369     23368     23370
     23371     23372     23371     23373     23374     23375     23374     23376
     23377     23378     23377     23379     23380     23381     23380     23382
     23383     23384     23383     23385     23386     23387     23386     23388
     23389     23390     23389     23391     23392     23393     23392     23394
     23395     23396     23395     23397     23398     23399     23398     23400
     23401     23402     23401     23403     23404     23405     23404     23406
     23407     23408     23407     23409     23410     23411     23410     23412
     23413     23414     23413     23415     23416     23417     23416     23418
     23419     23420     23419     23421     23422     23423     23422     23424
     23425     23426     23425     23427     23428     23429     23428     23430
     23431     23432     23431     23433     23434     23435     23434     23436
     23437     23438     23437     23439     23440     23441     23440     23442
     23443     23444     23443     23445     23446     23447     23446     23448
     23449     23450     23449     23451     23452     23453     23452     23454
     23455     23456     23455     23457     23458     23459     23458     23460
     23461     23462     23461     23463     23464     23465     23464     23466
     23467     23468     23467     23469     23470     23471     23470     23472
     23473     23474     23473     23475     23476     23477     23476     23478
     23479     23480     23479     23481     23482     23483     23482     23484
     23485     23486     23485     23487     23488     23489     23488     23490
     23491     23492     23491     23493     23494     23495     23494     23496
     23497     23498     23497     23499     23500     23501     23500     23502
     23503     23504     23503     23505     23506     23507     23506     23508
     23509     23510     23509     23511     23512     23513     23512     23514
     23515     23516     23515     23517     23518     23519     23518     23520
     23521     23522     23521     23523     23524     23525     23524     23526
     23527     23528     23527     23529     23530     23531     23530     23532
     23533     23534     23533     23535     23536     23537     23536     23538
     23539     23540     23539     23541     23542     23543     23542     23544
     23545     23546     23545     23547     23548     23549     23548     23550
     23551     23552     23551     23553     23554     23555     23554     23556
     23557     23558     23557     23559     23560     23561     23560     23562
     23563     23564     23563     23565     23566     23567     23566     23568
     23569     23570     23569     23571     23572     23573     23572     23574
     23575     23576     23575     23577     23578     23579     23578     23580
     23581     23582     23581     23583     23584     23585     23584     23586
     23587     23588     23587     23589     23590     23591     23590     23592
     23593     23594     23593     23595     23596     23597     23596     23598
     23599     23600     23599     23601     23602     23603     23602     23604
     23605     23606     23605     23607     23608     23609     23608     23610
     23611     23612     23611     23613     23614     23615     23614     23616
     23617     23618     23617     23619     23620     23621     23620     23622
     23623     23624     23623     23625     23626     23627     23626     23628
     23629     23630     23629     23631     23632     23633     23632     23634
     23635     23636     23635     23637     23638     23639     23638     23640
     23641     23642     23641     23643     23644     23645     23644     23646
     23647     23648     23647     23649     23650     23651     23650     23652
     23653     23654     23653     23655     23656     23657     23656     23658
     23659     23660     23659     23661     23662     23663     23662     23664
     23665     23666     23665     23667     23668     23669     23668     23670
     23671     23672     23671     23673     23674     23675     23674     23676
     23677     23678     23677     23679     23680     23681     23680     23682
     23683     23684     23683     23685     23686     23687     23686     23688
     23689     23690     23689     23691     23692     23693     23692     23694
     23695     23696     23695     23697     23698     23699     23698     23700
     23701     23702     23701     23703     23704     23705     23704     23706
     23707     23708     23707     23709     23710     23711     23710     23712
     23713     23714     23713     23715     23716     23717     23716     23718
     23719     23720     23719     23721     23722     23723     23722     23724
     23725     23726     23725     23727     23728     23729     23728     23730
     23731     23732     23731     23733     23734     23735     23734     23736
     23737     23738     23737     23739     23740     23741     23740     23742
     23743     23744     23743     23745     23746     23747     23746     23748
     23749     23750     23749     23751     23752     23753     23752     23754
     23755     23756     23755     23757     23758     23759     23758     23760
     23761     23762     23761     23763     23764     23765     23764     23766
     23767     23768     23767     23769     23770     23771     23770     23772
     23773     23774     23773     23775     23776     23777     23776     23778
     23779     23780     23779     23781     23782     23783     23782     23784
     23785     23786     23785     23787     23788     23789     23788     23790
     23791     23792     23791     23793     23794     23795     23794     23796
     23797     23798     23797     23799     23800     23801     23800     23802
     23803     23804     23803     23805     23806     23807     23806     23808
     23809     23810     23809     23811     23812     23813     23812     23814
     23815     23816     23815     23817     23818     23819     23818     23820
     23821     23822     23821     23823     23824     23825     23824     23826
     23827     23828     23827     23829     23830     23831     23830     23832
     23833     23834     23833     23835     23836     23837     23836     23838
     23839     23840     23839     23841     23842     23843     23842     23844
     23845     23846     23845     23847     23848     23849     23848     23850
     23851     23852     23851     23853     23854     23855     23854     23856
     23857     23858     23857     23859     23860     23861     23860     23862
     23863     23864     23863     23865     23866     23867     23866     23868
     23869     23870     23869     23871     23872     23873     23872     23874
     23875     23876     23875     23877     23878     23879     23878     23880
     23881     23882     23881     23883     23884     23885     23884     23886
     23887     23888     23887     23889     23890     23891     23890     23892
     23893     23894     23893     23895     23896     23897     23896     23898
     23899     23900     23899     23901     23902     23903     23902     23904
     23905     23906     23905     23907     23908     23909     23908     23910
     23911     23912     23911     23913     23914     23915     23914     23916
     23917     23918     23917     23919     23920     23921     23920     23922
     23923     23924     23923     23925     23926     23927     23926     23928
     23929     23930     23929     23931     23932     23933     23932     23934
     23935     23936     23935     23937     23938     23939     23938     23940
     23941     23942     23941     23943     23944     23945     23944     23946
     23947     23948     23947     23949     23950     23951     23950     23952
     23953     23954     23953     23955     23956     23957     23956     23958
     23959     23960     23959     23961     23962     23963     23962     23964
     23965     23966     23965     23967     23968     23969     23968     23970
     23971     23972     23971     23973     23974     23975     23974     23976
     23977     23978     23977     23979     23980     23981     23980     23982
     23983     23984     23983     23985     23986     23987     23986     23988
     23989     23990     23989     23991     23992     23993     23992     23994
     23995     23996     23995     23997     23998     23999     23998     24000
     24001     24002     24001     24003     24004     24005     24004     24006
     24007     24008     24007     24009     24010     24011     24010     24012
     24013     24014     24013     24015     24016     24017     24016     24018
     24019     24020     24019     24021     24022     24023     24022     24024
     24025     24026     24025     24027     24028     24029     24028     24030
     24031     24032     24031     24033     24034     24035     24034     24036
     24037     24038     24037     24039     24040     24041     24040     24042
     24043     24044     24043     24045     24046     24047     24046     24048
     24049     24050     24049     24051     24052     24053     24052     24054
     24055     24056     24055     24057     24058     24059     24058     24060
     24061     24062     24061     24063     24064     24065     24064     24066
     24067     24068     24067     24069     24070     24071     24070     24072
     24073     24074     24073     24075     24076     24077     24076     24078
     24079     24080     24079     24081     24082     24083     24082     24084
     24085     24086     24085     24087     24088     24089     24088     24090
     24091     24092     24091     24093     24094     24095     24094     24096
     24097     24098     24097     24099     24100     24101     24100     24102
     24103     24104     24103     24105     24106     24107     24106     24108
     24109     24110     24109     24111     24112     24113     24112     24114
     24115     24116     24115     24117     24118     24119     24118     24120
     24121     24122     24121     24123     24124     24125     24124     24126
     24127     24128     24127     24129     24130     24131     24130     24132
     24133     24134     24133     24135     24136     24137     24136     24138
     24139     24140     24139     24141     24142     24143     24142     24144
     24145     24146     24145     24147     24148     24149     24148     24150
     24151     24152     24151     24153     24154     24155     24154     24156
     24157     24158     24157     24159     24160     24161     24160     24162
     24163     24164     24163     24165     24166     24167     24166     24168
     24169     24170     24169     24171     24172     24173     24172     24174
     24175     24176     24175     24177     24178     24179     24178     24180
     24181     24182     24181     24183     24184     24185     24184     24186
     24187     24188     24187     24189     24190     24191     24190     24192
     24193     24194     24193     24195     24196     24197     24196     24198
     24199     24200     24199     24201     24202     24203     24202     24204
     24205     24206     24205     24207     24208     24209     24208     24210
     24211     24212     24211     24213     24214     24215     24214     24216
     24217     24218     24217     24219     24220     24221     24220     24222
     24223     24224     24223     24225     24226     24227     24226     24228
     24229     24230     24229     24231     24232     24233     24232     24234
     24235     24236     24235     24237     24238     24239     24238     24240
     24241     24242     24241     24243     24244     24245     24244     24246
     24247     24248     24247     24249     24250     24251     24250     24252
     24253     24254     24253     24255     24256     24257     24256     24258
     24259     24260     24259     24261     24262     24263     24262     24264
     24265     24266     24265     24267     24268     24269     24268     24270
     24271     24272     24271     24273     24274     24275     24274     24276
     24277     24278     24277     24279     24280     24281     24280     24282
     24283     24284     24283     24285     24286     24287     24286     24288
     24289     24290     24289     24291     24292     24293     24292     24294
     24295     24296     24295     24297     24298     24299     24298     24300
     24301     24302     24301     24303     24304     24305     24304     24306
     24307     24308     24307     24309     24310     24311     24310     24312
     24313     24314     24313     24315     24316     24317     24316     24318
     24319     24320     24319     24321     24322     24323     24322     24324
     24325     24326     24325     24327     24328     24329     24328     24330
     24331     24332     24331     24333     24334     24335     24334     24336
     24337     24338     24337     24339     24340     24341     24340     24342
     24343     24344     24343     24345     24346     24347     24346     24348
     24349     24350     24349     24351     24352     24353     24352     24354
     24355     24356     24355     24357     24358     24359     24358     24360
     24361     24362     24361     24363     24364     24365     24364     24366
     24367     24368     24367     24369     24370     24371     24370     24372
     24373     24374     24373     24375     24376     24377     24376     24378
     24379     24380     24379     24381     24382     24383     24382     24384
     24385     24386     24385     24387     24388     24389     24388     24390
     24391     24392     24391     24393     24394     24395     24394     24396
     24397     24398     24397     24399     24400     24401     24400     24402
     24403     24404     24403     24405     24406     24407     24406     24408
     24409     24410     24409     24411     24412     24413     24412     24414
     24415     24416     24415     24417     24418     24419     24418     24420
     24421     24422     24421     24423     24424     24425     24424     24426
     24427     24428     24427     24429     24430     24431     24430     24432
     24433     24434     24433     24435     24436     24437     24436     24438
     24439     24440     24439     24441     24442     24443     24442     24444
     24445     24446     24445     24447     24448     24449     24448     24450
     24451     24452     24451     24453     24454     24455     24454     24456
     24457     24458     24457     24459     24460     24461     24460     24462
     24463     24464     24463     24465     24466     24467     24466     24468
     24469     24470     24469     24471     24472     24473     24472     24474
     24475     24476     24475     24477     24478     24479     24478     24480
     24481     24482     24481     24483     24484     24485     24484     24486
     24487     24488     24487     24489     24490     24491     24490     24492
     24493     24494     24493     24495     24496     24497     24496     24498
     24499     24500     24499     24501     24502     24503     24502     24504
     24505     24506     24505     24507     24508     24509     24508     24510
     24511     24512     24511     24513     24514     24515     24514     24516
     24517     24518     24517     24519     24520     24521     24520     24522
     24523     24524     24523     24525     24526     24527     24526     24528
     24529     24530     24529     24531     24532     24533     24532     24534
     24535     24536     24535     24537     24538     24539     24538     24540
     24541     24542     24541     24543     24544     24545     24544     24546
     24547     24548     24547     24549     24550     24551     24550     24552
     24553     24554     24553     24555     24556     24557     24556     24558
     24559     24560     24559     24561     24562     24563     24562     24564
     24565     24566     24565     24567     24568     24569     24568     24570
     24571     24572     24571     24573     24574     24575     24574     24576
     24577     24578     24577     24579     24580     24581     24580     24582
     24583     24584     24583     24585     24586     24587     24586     24588
     24589     24590     24589     24591     24592     24593     24592     24594
     24595     24596     24595     24597     24598     24599     24598     24600
     24601     24602     24601     24603     24604     24605     24604     24606
     24607     24608     24607     24609     24610     24611     24610     24612
     24613     24614     24613     24615     24616     24617     24616     24618
     24619     24620     24619     24621     24622     24623     24622     24624
     24625     24626     24625     24627     24628     24629     24628     24630
     24631     24632     24631     24633     24634     24635     24634     24636
     24637     24638     24637     24639     24640     24641     24640     24642
     24643     24644     24643     24645     24646     24647     24646     24648
     24649     24650     24649     24651     24652     24653     24652     24654
     24655     24656     24655     24657     24658     24659     24658     24660
     24661     24662     24661     24663     24664     24665     24664     24666
     24667     24668     24667     24669     24670     24671     24670     24672
     24673     24674     24673     24675     24676     24677     24676     24678
     24679     24680     24679     24681     24682     24683     24682     24684
     24685     24686     24685     24687     24688     24689     24688     24690
     24691     24692     24691     24693     24694     24695     24694     24696
     24697     24698     24697     24699     24700     24701     24700     24702
     24703     24704     24703     24705     24706     24707     24706     24708
     24709     24710     24709     24711     24712     24713     24712     24714
     24715     24716     24715     24717     24718     24719     24718     24720
     24721     24722     24721     24723     24724     24725     24724     24726
     24727     24728     24727     24729     24730     24731     24730     24732
     24733     24734     24733     24735     24736     24737     24736     24738
     24739     24740     24739     24741     24742     24743     24742     24744
     24745     24746     24745     24747     24748     24749     24748     24750
     24751     24752     24751     24753     24754     24755     24754     24756
     24757     24758     24757     24759     24760     24761     24760     24762
     24763     24764     24763     24765     24766     24767     24766     24768
     24769     24770     24769     24771     24772     24773     24772     24774
     24775     24776     24775     24777     24778     24779     24778     24780
     24781     24782     24781     24783     24784     24785     24784     24786
     24787     24788     24787     24789     24790     24791     24790     24792
     24793     24794     24793     24795     24796     24797     24796     24798
     24799     24800     24799     24801     24802     24803     24802     24804
     24805     24806     24805     24807     24808     24809     24808     24810
     24811     24812     24811     24813     24814     24815     24814     24816
     24817     24818     24817     24819     24820     24821     24820     24822
     24823     24824     24823     24825     24826     24827     24826     24828
     24829     24830     24829     24831     24832     24833     24832     24834
     24835     24836     24835     24837     24838     24839     24838     24840
     24841     24842     24841     24843     24844     24845     24844     24846
     24847     24848     24847     24849     24850     24851     24850     24852
     24853     24854     24853     24855     24856     24857     24856     24858
     24859     24860     24859     24861     24862     24863     24862     24864
     24865     24866     24865     24867     24868     24869     24868     24870
     24871     24872     24871     24873     24874     24875     24874     24876
     24877     24878     24877     24879     24880     24881     24880     24882
     24883     24884     24883     24885     24886     24887     24886     24888
     24889     24890     24889     24891     24892     24893     24892     24894
     24895     24896     24895     24897     24898     24899     24898     24900
     24901     24902     24901     24903     24904     24905     24904     24906
     24907     24908     24907     24909     24910     24911     24910     24912
     24913     24914     24913     24915     24916     24917     24916     24918
     24919     24920     24919     24921     24922     24923     24922     24924
     24925     24926     24925     24927     24928     24929     24928     24930
     24931     24932     24931     24933     24934     24935     24934     24936
     24937     24938     24937     24939     24940     24941     24940     24942
     24943     24944     24943     24945     24946     24947     24946     24948
     24949     24950     24949     24951     24952     24953     24952     24954
     24955     24956     24955     24957     24958     24959     24958     24960
     24961     24962     24961     24963     24964     24965     24964     24966
     24967     24968     24967     24969     24970     24971     24970     24972
     24973     24974     24973     24975     24976     24977     24976     24978
     24979     24980     24979     24981     24982     24983     24982     24984
     24985     24986     24985     24987     24988     24989     24988     24990
     24991     24992     24991     24993     24994     24995     24994     24996
     24997     24998     24997     24999     25000     25001     25000     25002
     25003     25004     25003     25005     25006     25007     25006     25008
     25009     25010     25009     25011     25012     25013     25012     25014
     25015     25016     25015     25017     25018     25019     25018     25020
     25021     25022     25021     25023     25024     25025     25024     25026
     25027     25028     25027     25029     25030     25031     25030     25032
     25033     25034     25033     25035     25036     25037     25036     25038
     25039     25040     25039     25041     25042     25043     25042     25044
     25045     25046     25045     25047     25048     25049     25048     25050
     25051     25052     25051     25053     25054     25055     25054     25056
     25057     25058     25057     25059     25060     25061     25060     25062
     25063     25064     25063     25065     25066     25067     25066     25068
     25069     25070     25069     25071     25072     25073     25072     25074
     25075     25076     25075     25077     25078     25079     25078     25080
     25081     25082     25081     25083     25084     25085     25084     25086
     25087     25088     25087     25089     25090     25091     25090     25092
     25093     25094     25093     25095     25096     25097     25096     25098
     25099     25100     25099     25101     25102     25103     25102     25104
     25105     25106     25105     25107     25108     25109     25108     25110
     25111     25112     25111     25113     25114     25115     25114     25116
     25117     25118     25117     25119     25120     25121     25120     25122
     25123     25124     25123     25125     25126     25127     25126     25128
     25129     25130     25129     25131     25132     25133     25132     25134
     25135     25136     25135     25137     25138     25139     25138     25140
     25141     25142     25141     25143     25144     25145     25144     25146
     25147     25148     25147     25149     25150     25151     25150     25152
     25153     25154     25153     25155     25156     25157     25156     25158
     25159     25160     25159     25161     25162     25163     25162     25164
     25165     25166     25165     25167     25168     25169     25168     25170
     25171     25172     25171     25173     25174     25175     25174     25176
     25177     25178     25177     25179     25180     25181     25180     25182
     25183     25184     25183     25185     25186     25187     25186     25188
     25189     25190     25189     25191     25192     25193     25192     25194
     25195     25196     25195     25197     25198     25199     25198     25200
     25201     25202     25201     25203     25204     25205     25204     25206
     25207     25208     25207     25209     25210     25211     25210     25212
     25213     25214     25213     25215     25216     25217     25216     25218
     25219     25220     25219     25221     25222     25223     25222     25224
     25225     25226     25225     25227     25228     25229     25228     25230
     25231     25232     25231     25233     25234     25235     25234     25236
     25237     25238     25237     25239     25240     25241     25240     25242
     25243     25244     25243     25245     25246     25247     25246     25248
     25249     25250     25249     25251     25252     25253     25252     25254
     25255     25256     25255     25257     25258     25259     25258     25260
     25261     25262     25261     25263     25264     25265     25264     25266
     25267     25268     25267     25269     25270     25271     25270     25272
     25273     25274     25273     25275     25276     25277     25276     25278
     25279     25280     25279     25281     25282     25283     25282     25284
     25285     25286     25285     25287     25288     25289     25288     25290
     25291     25292     25291     25293     25294     25295     25294     25296
     25297     25298     25297     25299     25300     25301     25300     25302
     25303     25304     25303     25305     25306     25307     25306     25308
     25309     25310     25309     25311     25312     25313     25312     25314
     25315     25316     25315     25317     25318     25319     25318     25320
     25321     25322     25321     25323     25324     25325     25324     25326
     25327     25328     25327     25329     25330     25331     25330     25332
     25333     25334     25333     25335     25336     25337     25336     25338
     25339     25340     25339     25341     25342     25343     25342     25344
     25345     25346     25345     25347     25348     25349     25348     25350
     25351     25352     25351     25353     25354     25355     25354     25356
     25357     25358     25357     25359     25360     25361     25360     25362
     25363     25364     25363     25365     25366     25367     25366     25368
     25369     25370     25369     25371     25372     25373     25372     25374
     25375     25376     25375     25377     25378     25379     25378     25380
     25381     25382     25381     25383     25384     25385     25384     25386
     25387     25388     25387     25389     25390     25391     25390     25392
     25393     25394     25393     25395     25396     25397     25396     25398
     25399     25400     25399     25401     25402     25403     25402     25404
     25405     25406     25405     25407     25408     25409     25408     25410
     25411     25412     25411     25413     25414     25415     25414     25416
     25417     25418     25417     25419     25420     25421     25420     25422
     25423     25424     25423     25425     25426     25427     25426     25428
     25429     25430     25429     25431     25432     25433     25432     25434
     25435     25436     25435     25437     25438     25439     25438     25440
     25441     25442     25441     25443     25444     25445     25444     25446
     25447     25448     25447     25449     25450     25451     25450     25452
     25453     25454     25453     25455     25456     25457     25456     25458
     25459     25460     25459     25461     25462     25463     25462     25464
     25465     25466     25465     25467     25468     25469     25468     25470
     25471     25472     25471     25473     25474     25475     25474     25476
     25477     25478     25477     25479     25480     25481     25480     25482
     25483     25484     25483     25485     25486     25487     25486     25488
     25489     25490     25489     25491     25492     25493     25492     25494
     25495     25496     25495     25497     25498     25499     25498     25500
     25501     25502     25501     25503     25504     25505     25504     25506
     25507     25508     25507     25509     25510     25511     25510     25512
     25513     25514     25513     25515     25516     25517     25516     25518
     25519     25520     25519     25521     25522     25523     25522     25524
     25525     25526     25525     25527     25528     25529     25528     25530
     25531     25532     25531     25533     25534     25535     25534     25536
     25537     25538     25537     25539     25540     25541     25540     25542
     25543     25544     25543     25545     25546     25547     25546     25548
     25549     25550     25549     25551     25552     25553     25552     25554
     25555     25556     25555     25557     25558     25559     25558     25560
     25561     25562     25561     25563     25564     25565     25564     25566
     25567     25568     25567     25569     25570     25571     25570     25572
     25573     25574     25573     25575     25576     25577     25576     25578
     25579     25580     25579     25581     25582     25583     25582     25584
     25585     25586     25585     25587     25588     25589     25588     25590
     25591     25592     25591     25593     25594     25595     25594     25596
     25597     25598     25597     25599     25600     25601     25600     25602
     25603     25604     25603     25605     25606     25607     25606     25608
     25609     25610     25609     25611     25612     25613     25612     25614
     25615     25616     25615     25617     25618     25619     25618     25620
     25621     25622     25621     25623     25624     25625     25624     25626
     25627     25628     25627     25629     25630     25631     25630     25632
     25633     25634     25633     25635     25636     25637     25636     25638
     25639     25640     25639     25641     25642     25643     25642     25644
     25645     25646     25645     25647     25648     25649     25648     25650
     25651     25652     25651     25653     25654     25655     25654     25656
     25657     25658     25657     25659     25660     25661     25660     25662
     25663     25664     25663     25665     25666     25667     25666     25668
     25669     25670     25669     25671     25672     25673     25672     25674
     25675     25676     25675     25677     25678     25679     25678     25680
     25681     25682     25681     25683     25684     25685     25684     25686
     25687     25688     25687     25689     25690     25691     25690     25692
     25693     25694     25693     25695     25696     25697     25696     25698
     25699     25700     25699     25701     25702     25703     25702     25704
     25705     25706     25705     25707     25708     25709     25708     25710
     25711     25712     25711     25713     25714     25715     25714     25716
     25717     25718     25717     25719     25720     25721     25720     25722
     25723     25724     25723     25725     25726     25727     25726     25728
     25729     25730     25729     25731     25732     25733     25732     25734
     25735     25736     25735     25737     25738     25739     25738     25740
     25741     25742     25741     25743     25744     25745     25744     25746
     25747     25748     25747     25749     25750     25751     25750     25752
     25753     25754     25753     25755     25756     25757     25756     25758
     25759     25760     25759     25761     25762     25763     25762     25764
     25765     25766     25765     25767     25768     25769     25768     25770
     25771     25772     25771     25773     25774     25775     25774     25776
     25777     25778     25777     25779     25780     25781     25780     25782
     25783     25784     25783     25785     25786     25787     25786     25788
     25789     25790     25789     25791     25792     25793     25792     25794
     25795     25796     25795     25797     25798     25799     25798     25800
     25801     25802     25801     25803     25804     25805     25804     25806
     25807     25808     25807     25809     25810     25811     25810     25812
     25813     25814     25813     25815     25816     25817     25816     25818
     25819     25820     25819     25821     25822     25823     25822     25824
     25825     25826     25825     25827     25828     25829     25828     25830
     25831     25832     25831     25833     25834     25835     25834     25836
     25837     25838     25837     25839     25840     25841     25840     25842
     25843     25844     25843     25845     25846     25847     25846     25848
     25849     25850     25849     25851     25852     25853     25852     25854
     25855     25856     25855     25857     25858     25859     25858     25860
     25861     25862     25861     25863     25864     25865     25864     25866
     25867     25868     25867     25869     25870     25871     25870     25872
     25873     25874     25873     25875     25876     25877     25876     25878
     25879     25880     25879     25881     25882     25883     25882     25884
     25885     25886     25885     25887     25888     25889     25888     25890
     25891     25892     25891     25893     25894     25895     25894     25896
     25897     25898     25897     25899     25900     25901     25900     25902
     25903     25904     25903     25905     25906     25907     25906     25908
     25909     25910     25909     25911     25912     25913     25912     25914
     25915     25916     25915     25917     25918     25919     25918     25920
     25921     25922     25921     25923     25924     25925     25924     25926
     25927     25928     25927     25929     25930     25931     25930     25932
     25933     25934     25933     25935     25936     25937     25936     25938
     25939     25940     25939     25941     25942     25943     25942     25944
     25945     25946     25945     25947     25948     25949     25948     25950
     25951     25952     25951     25953     25954     25955     25954     25956
     25957     25958     25957     25959     25960     25961     25960     25962
     25963     25964     25963     25965     25966     25967     25966     25968
     25969     25970     25969     25971     25972     25973     25972     25974
     25975     25976     25975     25977     25978     25979     25978     25980
     25981     25982     25981     25983     25984     25985     25984     25986
     25987     25988     25987     25989     25990     25991     25990     25992
     25993     25994     25993     25995     25996     25997     25996     25998
     25999     26000     25999     26001     26002     26003     26002     26004
     26005     26006     26005     26007     26008     26009     26008     26010
     26011     26012     26011     26013     26014     26015     26014     26016
     26017     26018     26017     26019     26020     26021     26020     26022
     26023     26024     26023     26025     26026     26027     26026     26028
     26029     26030     26029     26031     26032     26033     26032     26034
     26035     26036     26035     26037     26038     26039     26038     26040
     26041     26042     26041     26043     26044     26045     26044     26046
     26047     26048     26047     26049     26050     26051     26050     26052
     26053     26054     26053     26055     26056     26057     26056     26058
     26059     26060     26059     26061     26062     26063     26062     26064
     26065     26066     26065     26067     26068     26069     26068     26070
     26071     26072     26071     26073     26074     26075     26074     26076
     26077     26078     26077     26079     26080     26081     26080     26082
     26083     26084     26083     26085     26086     26087     26086     26088
     26089     26090     26089     26091     26092     26093     26092     26094
     26095     26096     26095     26097     26098     26099     26098     26100
     26101     26102     26101     26103     26104     26105     26104     26106
     26107     26108     26107     26109     26110     26111     26110     26112
     26113     26114     26113     26115     26116     26117     26116     26118
     26119     26120     26119     26121     26122     26123     26122     26124
     26125     26126     26125     26127     26128     26129     26128     26130
     26131     26132     26131     26133     26134     26135     26134     26136
     26137     26138     26137     26139     26140     26141     26140     26142
     26143     26144     26143     26145     26146     26147     26146     26148
     26149     26150     26149     26151     26152     26153     26152     26154
     26155     26156     26155     26157     26158     26159     26158     26160
     26161     26162     26161     26163     26164     26165     26164     26166
     26167     26168     26167     26169     26170     26171     26170     26172
     26173     26174     26173     26175     26176     26177     26176     26178
     26179     26180     26179     26181     26182     26183     26182     26184
     26185     26186     26185     26187     26188     26189     26188     26190
     26191     26192     26191     26193     26194     26195     26194     26196
     26197     26198     26197     26199     26200     26201     26200     26202
     26203     26204     26203     26205     26206     26207     26206     26208
     26209     26210     26209     26211     26212     26213     26212     26214
     26215     26216     26215     26217     26218     26219     26218     26220
     26221     26222     26221     26223     26224     26225     26224     26226
     26227     26228     26227     26229     26230     26231     26230     26232
     26233     26234     26233     26235     26236     26237     26236     26238
     26239     26240     26239     26241     26242     26243     26242     26244
     26245     26246     26245     26247     26248     26249     26248     26250
     26251     26252     26251     26253     26254     26255     26254     26256
     26257     26258     26257     26259     26260     26261     26260     26262
     26263     26264     26263     26265     26266     26267     26266     26268
     26269     26270     26269     26271     26272     26273     26272     26274
     26275     26276     26275     26277     26278     26279     26278     26280
     26281     26282     26281     26283     26284     26285     26284     26286
     26287     26288     26287     26289     26290     26291     26290     26292
     26293     26294     26293     26295     26296     26297     26296     26298
     26299     26300     26299     26301     26302     26303     26302     26304
     26305     26306     26305     26307     26308     26309     26308     26310
     26311     26312     26311     26313     26314     26315     26314     26316
     26317     26318     26317     26319     26320     26321     26320     26322
     26323     26324     26323     26325     26326     26327     26326     26328
     26329     26330     26329     26331     26332     26333     26332     26334
     26335     26336     26335     26337     26338     26339     26338     26340
     26341     26342     26341     26343     26344     26345     26344     26346
     26347     26348     26347     26349     26350     26351     26350     26352
     26353     26354     26353     26355     26356     26357     26356     26358
     26359     26360     26359     26361     26362     26363     26362     26364
     26365     26366     26365     26367     26368     26369     26368     26370
     26371     26372     26371     26373     26374     26375     26374     26376
     26377     26378     26377     26379     26380     26381     26380     26382
     26383     26384     26383     26385     26386     26387     26386     26388
     26389     26390     26389     26391     26392     26393     26392     26394
     26395     26396     26395     26397     26398     26399     26398     26400
     26401     26402     26401     26403     26404     26405     26404     26406
     26407     26408     26407     26409     26410     26411     26410     26412
     26413     26414     26413     26415     26416     26417     26416     26418
     26419     26420     26419     26421     26422     26423     26422     26424
     26425     26426     26425     26427     26428     26429     26428     26430
     26431     26432     26431     26433     26434     26435     26434     26436
     26437     26438     26437     26439     26440     26441     26440     26442
     26443     26444     26443     26445     26446     26447     26446     26448
     26449     26450     26449     26451     26452     26453     26452     26454
     26455     26456     26455     26457     26458     26459     26458     26460
     26461     26462     26461     26463     26464     26465     26464     26466
     26467     26468     26467     26469     26470     26471     26470     26472
     26473     26474     26473     26475     26476     26477     26476     26478
     26479     26480     26479     26481     26482     26483     26482     26484
     26485     26486     26485     26487     26488     26489     26488     26490
     26491     26492     26491     26493     26494     26495     26494     26496
     26497     26498     26497     26499     26500     26501     26500     26502
     26503     26504     26503     26505     26506     26507     26506     26508
     26509     26510     26509     26511     26512     26513     26512     26514
     26515     26516     26515     26517     26518     26519     26518     26520
     26521     26522     26521     26523     26524     26525     26524     26526
     26527     26528     26527     26529     26530     26531     26530     26532
     26533     26534     26533     26535     26536     26537     26536     26538
     26539     26540     26539     26541     26542     26543     26542     26544
     26545     26546     26545     26547     26548     26549     26548     26550
     26551     26552     26551     26553     26554     26555     26554     26556
     26557     26558     26557     26559     26560     26561     26560     26562
     26563     26564     26563     26565     26566     26567     26566     26568
     26569     26570     26569     26571     26572     26573     26572     26574
     26575     26576     26575     26577     26578     26579     26578     26580
     26581     26582     26581     26583     26584     26585     26584     26586
     26587     26588     26587     26589     26590     26591     26590     26592
     26593     26594     26593     26595     26596     26597     26596     26598
     26599     26600     26599     26601     26602     26603     26602     26604
     26605     26606     26605     26607     26608     26609     26608     26610
     26611     26612     26611     26613     26614     26615     26614     26616
     26617     26618     26617     26619     26620     26621     26620     26622
     26623     26624     26623     26625     26626     26627     26626     26628
     26629     26630     26629     26631     26632     26633     26632     26634
     26635     26636     26635     26637     26638     26639     26638     26640
     26641     26642     26641     26643     26644     26645     26644     26646
     26647     26648     26647     26649     26650     26651     26650     26652
     26653     26654     26653     26655     26656     26657     26656     26658
     26659     26660     26659     26661     26662     26663     26662     26664
     26665     26666     26665     26667     26668     26669     26668     26670
     26671     26672     26671     26673     26674     26675     26674     26676
     26677     26678     26677     26679     26680     26681     26680     26682
     26683     26684     26683     26685     26686     26687     26686     26688
     26689     26690     26689     26691     26692     26693     26692     26694
     26695     26696     26695     26697     26698     26699     26698     26700
     26701     26702     26701     26703     26704     26705     26704     26706
     26707     26708     26707     26709     26710     26711     26710     26712
     26713     26714     26713     26715     26716     26717     26716     26718
     26719     26720     26719     26721     26722     26723     26722     26724
     26725     26726     26725     26727     26728     26729     26728     26730
     26731     26732     26731     26733     26734     26735     26734     26736
     26737     26738     26737     26739     26740     26741     26740     26742
     26743     26744     26743     26745     26746     26747     26746     26748
     26749     26750     26749     26751     26752     26753     26752     26754
     26755     26756     26755     26757     26758     26759     26758     26760
     26761     26762     26761     26763     26764     26765     26764     26766
     26767     26768     26767     26769     26770     26771     26770     26772
     26773     26774     26773     26775     26776     26777     26776     26778
     26779     26780     26779     26781     26782     26783     26782     26784
     26785     26786     26785     26787     26788     26789     26788     26790
     26791     26792     26791     26793     26794     26795     26794     26796
     26797     26798     26797     26799     26800     26801     26800     26802
     26803     26804     26803     26805     26806     26807     26806     26808
     26809     26810     26809     26811     26812     26813     26812     26814
     26815     26816     26815     26817     26818     26819     26818     26820
     26821     26822     26821     26823     26824     26825     26824     26826
     26827     26828     26827     26829     26830     26831     26830     26832
     26833     26834     26833     26835     26836     26837     26836     26838
     26839     26840     26839     26841     26842     26843     26842     26844
     26845     26846     26845     26847     26848     26849     26848     26850
     26851     26852     26851     26853     26854     26855     26854     26856
     26857     26858     26857     26859     26860     26861     26860     26862
     26863     26864     26863     26865     26866     26867     26866     26868
     26869     26870     26869     26871     26872     26873     26872     26874
     26875     26876     26875     26877     26878     26879     26878     26880
     26881     26882     26881     26883     26884     26885     26884     26886
     26887     26888     26887     26889     26890     26891     26890     26892
     26893     26894     26893     26895     26896     26897     26896     26898
     26899     26900     26899     26901     26902     26903     26902     26904
     26905     26906     26905     26907     26908     26909     26908     26910
     26911     26912     26911     26913     26914     26915     26914     26916
     26917     26918     26917     26919     26920     26921     26920     26922
     26923     26924     26923     26925     26926     26927     26926     26928
     26929     26930     26929     26931     26932     26933     26932     26934
     26935     26936     26935     26937     26938     26939     26938     26940
     26941     26942     26941     26943     26944     26945     26944     26946
     26947     26948     26947     26949     26950     26951     26950     26952
     26953     26954     26953     26955     26956     26957     26956     26958
     26959     26960     26959     26961     26962     26963     26962     26964
     26965     26966     26965     26967     26968     26969     26968     26970
     26971     26972     26971     26973     26974     26975     26974     26976
     26977     26978     26977     26979     26980     26981     26980     26982
     26983     26984     26983     26985     26986     26987     26986     26988
     26989     26990     26989     26991     26992     26993     26992     26994
     26995     26996     26995     26997     26998     26999     26998     27000
     27001     27002     27001     27003     27004     27005     27004     27006
     27007     27008     27007     27009     27010     27011     27010     27012
     27013     27014     27013     27015     27016     27017     27016     27018
     27019     27020     27019     27021     27022     27023     27022     27024
     27025     27026     27025     27027     27028     27029     27028     27030
     27031     27032     27031     27033     27034     27035     27034     27036
     27037     27038     27037     27039     27040     27041     27040     27042
     27043     27044     27043     27045     27046     27047     27046     27048
     27049     27050     27049     27051     27052     27053     27052     27054
     27055     27056     27055     27057     27058     27059     27058     27060
     27061     27062     27061     27063     27064     27065     27064     27066
     27067     27068     27067     27069     27070     27071     27070     27072
     27073     27074     27073     27075     27076     27077     27076     27078
     27079     27080     27079     27081     27082     27083     27082     27084
     27085     27086     27085     27087     27088     27089     27088     27090
     27091     27092     27091     27093     27094     27095     27094     27096
     27097     27098     27097     27099     27100     27101     27100     27102
     27103     27104     27103     27105     27106     27107     27106     27108
     27109     27110     27109     27111     27112     27113     27112     27114
     27115     27116     27115     27117     27118     27119     27118     27120
     27121     27122     27121     27123     27124     27125     27124     27126
     27127     27128     27127     27129     27130     27131     27130     27132
     27133     27134     27133     27135     27136     27137     27136     27138
     27139     27140     27139     27141     27142     27143     27142     27144
     27145     27146     27145     27147     27148     27149     27148     27150
     27151     27152     27151     27153     27154     27155     27154     27156
     27157     27158     27157     27159     27160     27161     27160     27162
     27163     27164     27163     27165     27166     27167     27166     27168
     27169     27170     27169     27171     27172     27173     27172     27174
     27175     27176     27175     27177     27178     27179     27178     27180
     27181     27182     27181     27183     27184     27185     27184     27186
     27187     27188     27187     27189     27190     27191     27190     27192
     27193     27194     27193     27195     27196     27197     27196     27198
     27199     27200     27199     27201     27202     27203     27202     27204
     27205     27206     27205     27207     27208     27209     27208     27210
     27211     27212     27211     27213     27214     27215     27214     27216
     27217     27218     27217     27219     27220     27221     27220     27222
     27223     27224     27223     27225     27226     27227     27226     27228
     27229     27230     27229     27231     27232     27233     27232     27234
     27235     27236     27235     27237     27238     27239     27238     27240
     27241     27242     27241     27243     27244     27245     27244     27246
     27247     27248     27247     27249     27250     27251     27250     27252
     27253     27254     27253     27255     27256     27257     27256     27258
     27259     27260     27259     27261     27262     27263     27262     27264
     27265     27266     27265     27267     27268     27269     27268     27270
     27271     27272     27271     27273     27274     27275     27274     27276
     27277     27278     27277     27279     27280     27281     27280     27282
     27283     27284     27283     27285     27286     27287     27286     27288
     27289     27290     27289     27291     27292     27293     27292     27294
     27295     27296     27295     27297     27298     27299     27298     27300
     27301     27302     27301     27303     27304     27305     27304     27306
     27307     27308     27307     27309     27310     27311     27310     27312
     27313     27314     27313     27315     27316     27317     27316     27318
     27319     27320     27319     27321     27322     27323     27322     27324
     27325     27326     27325     27327     27328     27329     27328     27330
     27331     27332     27331     27333     27334     27335     27334     27336
     27337     27338     27337     27339     27340     27341     27340     27342
     27343     27344     27343     27345     27346     27347     27346     27348
     27349     27350     27349     27351     27352     27353     27352     27354
     27355     27356     27355     27357     27358     27359     27358     27360
     27361     27362     27361     27363     27364     27365     27364     27366
     27367     27368     27367     27369     27370     27371     27370     27372
     27373     27374     27373     27375     27376     27377     27376     27378
     27379     27380     27379     27381     27382     27383     27382     27384
     27385     27386     27385     27387     27388     27389     27388     27390
     27391     27392     27391     27393     27394     27395     27394     27396
     27397     27398     27397     27399     27400     27401     27400     27402
     27403     27404     27403     27405     27406     27407     27406     27408
     27409     27410     27409     27411     27412     27413     27412     27414
     27415     27416     27415     27417     27418     27419     27418     27420
     27421     27422     27421     27423     27424     27425     27424     27426
     27427     27428     27427     27429     27430     27431     27430     27432
     27433     27434     27433     27435     27436     27437     27436     27438
     27439     27440     27439     27441     27442     27443     27442     27444
     27445     27446     27445     27447     27448     27449     27448     27450
     27451     27452     27451     27453     27454     27455     27454     27456
     27457     27458     27457     27459     27460     27461     27460     27462
     27463     27464     27463     27465     27466     27467     27466     27468
     27469     27470     27469     27471     27472     27473     27472     27474
     27475     27476     27475     27477     27478     27479     27478     27480
     27481     27482     27481     27483     27484     27485     27484     27486
     27487     27488     27487     27489     27490     27491     27490     27492
     27493     27494     27493     27495     27496     27497     27496     27498
     27499     27500     27499     27501     27502     27503     27502     27504
     27505     27506     27505     27507     27508     27509     27508     27510
     27511     27512     27511     27513     27514     27515     27514     27516
     27517     27518     27517     27519     27520     27521     27520     27522
     27523     27524     27523     27525     27526     27527     27526     27528
     27529     27530     27529     27531     27532     27533     27532     27534
     27535     27536     27535     27537     27538     27539     27538     27540
     27541     27542     27541     27543     27544     27545     27544     27546
     27547     27548     27547     27549     27550     27551     27550     27552
     27553     27554     27553     27555     27556     27557     27556     27558
     27559     27560     27559     27561     27562     27563     27562     27564
     27565     27566     27565     27567     27568     27569     27568     27570
     27571     27572     27571     27573     27574     27575     27574     27576
     27577     27578     27577     27579     27580     27581     27580     27582
     27583     27584     27583     27585     27586     27587     27586     27588
     27589     27590     27589     27591     27592     27593     27592     27594
     27595     27596     27595     27597     27598     27599     27598     27600
     27601     27602     27601     27603     27604     27605     27604     27606
     27607     27608     27607     27609     27610     27611     27610     27612
     27613     27614     27613     27615     27616     27617     27616     27618
     27619     27620     27619     27621     27622     27623     27622     27624
     27625     27626     27625     27627     27628     27629     27628     27630
     27631     27632     27631     27633     27634     27635     27634     27636
     27637     27638     27637     27639     27640     27641     27640     27642
     27643     27644     27643     27645     27646     27647     27646     27648
     27649     27650     27649     27651     27652     27653     27652     27654
     27655     27656     27655     27657     27658     27659     27658     27660
     27661     27662     27661     27663     27664     27665     27664     27666
     27667     27668     27667     27669     27670     27671     27670     27672
     27673     27674     27673     27675     27676     27677     27676     27678
     27679     27680     27679     27681     27682     27683     27682     27684
     27685     27686     27685     27687     27688     27689     27688     27690
     27691     27692     27691     27693     27694     27695     27694     27696
     27697     27698     27697     27699     27700     27701     27700     27702
     27703     27704     27703     27705     27706     27707     27706     27708
     27709     27710     27709     27711     27712     27713     27712     27714
     27715     27716     27715     27717     27718     27719     27718     27720
     27721     27722     27721     27723     27724     27725     27724     27726
     27727     27728     27727     27729     27730     27731     27730     27732
     27733     27734     27733     27735     27736     27737     27736     27738
     27739     27740     27739     27741     27742     27743     27742     27744
     27745     27746     27745     27747     27748     27749     27748     27750
     27751     27752     27751     27753     27754     27755     27754     27756
     27757     27758     27757     27759     27760     27761     27760     27762
     27763     27764     27763     27765     27766     27767     27766     27768
     27769     27770     27769     27771     27772     27773     27772     27774
     27775     27776     27775     27777     27778     27779     27778     27780
     27781     27782     27781     27783     27784     27785     27784     27786
     27787     27788     27787     27789     27790     27791     27790     27792
     27793     27794     27793     27795     27796     27797     27796     27798
     27799     27800     27799     27801     27802     27803     27802     27804
     27805     27806     27805     27807     27808     27809     27808     27810
     27811     27812     27811     27813     27814     27815     27814     27816
     27817     27818     27817     27819     27820     27821     27820     27822
     27823     27824     27823     27825     27826     27827     27826     27828
     27829     27830     27829     27831     27832     27833     27832     27834
     27835     27836     27835     27837     27838     27839     27838     27840
     27841     27842     27841     27843     27844     27845     27844     27846
     27847     27848     27847     27849     27850     27851     27850     27852
     27853     27854     27853     27855     27856     27857     27856     27858
     27859     27860     27859     27861     27862     27863     27862     27864
     27865     27866     27865     27867     27868     27869     27868     27870
     27871     27872     27871     27873     27874     27875     27874     27876
     27877     27878     27877     27879     27880     27881     27880     27882
     27883     27884     27883     27885     27886     27887     27886     27888
     27889     27890     27889     27891     27892     27893     27892     27894
     27895     27896     27895     27897     27898     27899     27898     27900
     27901     27902     27901     27903     27904     27905     27904     27906
     27907     27908     27907     27909     27910     27911     27910     27912
     27913     27914     27913     27915     27916     27917     27916     27918
     27919     27920     27919     27921     27922     27923     27922     27924
     27925     27926     27925     27927     27928     27929     27928     27930
     27931     27932     27931     27933     27934     27935     27934     27936
     27937     27938     27937     27939     27940     27941     27940     27942
     27943     27944     27943     27945     27946     27947     27946     27948
     27949     27950     27949     27951     27952     27953     27952     27954
     27955     27956     27955     27957     27958     27959     27958     27960
     27961     27962     27961     27963     27964     27965     27964     27966
     27967     27968     27967     27969     27970     27971     27970     27972
     27973     27974     27973     27975     27976     27977     27976     27978
     27979     27980     27979     27981     27982     27983     27982     27984
     27985     27986     27985     27987     27988     27989     27988     27990
     27991     27992     27991     27993     27994     27995     27994     27996
     27997     27998     27997     27999     28000     28001     28000     28002
     28003     28004     28003     28005     28006     28007     28006     28008
     28009     28010     28009     28011     28012     28013     28012     28014
     28015     28016     28015     28017     28018     28019     28018     28020
     28021     28022     28021     28023     28024     28025     28024     28026
     28027     28028     28027     28029     28030     28031     28030     28032
     28033     28034     28033     28035     28036     28037     28036     28038
     28039     28040     28039     28041     28042     28043     28042     28044
     28045     28046     28045     28047     28048     28049     28048     28050
     28051     28052     28051     28053     28054     28055     28054     28056
     28057     28058     28057     28059     28060     28061     28060     28062
     28063     28064     28063     28065     28066     28067     28066     28068
     28069     28070     28069     28071     28072     28073     28072     28074

      3612 !NACC: acceptors
     17239     17238     17242     17238     17245     17238     17248     17238
     17251     17238     17254     17238     17257     17238     17260     17238
     17263     17238     17266     17238     17269     17238     17272     17238
     17275     17238     17278     17238     17281     17238     17284     17238
     17287     17238     17290     17238     17293     17238     17296     17238
     17299     17238     17302     17238     17305     17238     17308     17238
     17311     17238     17314     17238     17317     17238     17320     17238
     17323     17238     17326     17238     17329     17238     17332     17238
     17335     17238     17338     17238     17341     17238     17344     17238
     17347     17238     17350     17238     17353     17238     17356     17238
     17359     17238     17362     17238     17365     17238     17368     17238
     17371     17238     17374     17238     17377     17238     17380     17238
     17383     17238     17386     17238     17389     17238     17392     17238
     17395     17238     17398     17238     17401     17238     17404     17238
     17407     17238     17410     17238     17413     17238     17416     17238
     17419     17238     17422     17238     17425     17238     17428     17238
     17431     17238     17434     17238     17437     17238     17440     17238
     17443     17238     17446     17238     17449     17238     17452     17238
     17455     17238     17458     17238     17461     17238     17464     17238
     17467     17238     17470     17238     17473     17238     17476     17238
     17479     17238     17482     17238     17485     17238     17488     17238
     17491     17238     17494     17238     17497     17238     17500     17238
     17503     17238     17506     17238     17509     17238     17512     17238
     17515     17238     17518     17238     17521     17238     17524     17238
     17527     17238     17530     17238     17533     17238     17536     17238
     17539     17238     17542     17238     17545     17238     17548     17238
     17551     17238     17554     17238     17557     17238     17560     17238
     17563     17238     17566     17238     17569     17238     17572     17238
     17575     17238     17578     17238     17581     17238     17584     17238
     17587     17238     17590     17238     17593     17238     17596     17238
     17599     17238     17602     17238     17605     17238     17608     17238
     17611     17238     17614     17238     17617     17238     17620     17238
     17623     17238     17626     17238     17629     17238     17632     17238
     17635     17238     17638     17238     17641     17238     17644     17238
     17647     17238     17650     17238     17653     17238     17656     17238
     17659     17238     17662     17238     17665     17238     17668     17238
     17671     17238     17674     17238     17677     17238     17680     17238
     17683     17238     17686     17238     17689     17238     17692     17238
     17695     17238     17698     17238     17701     17238     17704     17238
     17707     17238     17710     17238     17713     17238     17716     17238
     17719     17238     17722     17238     17725     17238     17728     17238
     17731     17238     17734     17238     17737     17238     17740     17238
     17743     17238     17746     17238     17749     17238     17752     17238
     17755     17238     17758     17238     17761     17238     17764     17238
     17767     17238     17770     17238     17773     17238     17776     17238
     17779     17238     17782     17238     17785     17238     17788     17238
     17791     17238     17794     17238     17797     17238     17800     17238
     17803     17238     17806     17238     17809     17238     17812     17238
     17815     17238     17818     17238     17821     17238     17824     17238
     17827     17238     17830     17238     17833     17238     17836     17238
     17839     17238     17842     17238     17845     17238     17848     17238
     17851     17238     17854     17238     17857     17238     17860     17238
     17863     17238     17866     17238     17869     17238     17872     17238
     17875     17238     17878     17238     17881     17238     17884     17238
     17887     17238     17890     17238     17893     17238     17896     17238
     17899     17238     17902     17238     17905     17238     17908     17238
     17911     17238     17914     17238     17917     17238     17920     17238
     17923     17238     17926     17238     17929     17238     17932     17238
     17935     17238     17938     17238     17941     17238     17944     17238
     17947     17238     17950     17238     17953     17238     17956     17238
     17959     17238     17962     17238     17965     17238     17968     17238
     17971     17238     17974     17238     17977     17238     17980     17238
     17983     17238     17986     17238     17989     17238     17992     17238
     17995     17238     17998     17238     18001     17238     18004     17238
     18007     17238     18010     17238     18013     17238     18016     17238
     18019     17238     18022     17238     18025     17238     18028     17238
     18031     17238     18034     17238     18037     17238     18040     17238
     18043     17238     18046     17238     18049     17238     18052     17238
     18055     17238     18058     17238     18061     17238     18064     17238
     18067     17238     18070     17238     18073     17238     18076     17238
     18079     17238     18082     17238     18085     17238     18088     17238
     18091     17238     18094     17238     18097     17238     18100     17238
     18103     17238     18106     17238     18109     17238     18112     17238
     18115     17238     18118     17238     18121     17238     18124     17238
     18127     17238     18130     17238     18133     17238     18136     17238
     18139     17238     18142     17238     18145     17238     18148     17238
     18151     17238     18154     17238     18157     17238     18160     17238
     18163     17238     18166     17238     18169     17238     18172     17238
     18175     17238     18178     17238     18181     17238     18184     17238
     18187     17238     18190     17238     18193     17238     18196     17238
     18199     17238     18202     17238     18205     17238     18208     17238
     18211     17238     18214     17238     18217     17238     18220     17238
     18223     17238     18226     17238     18229     17238     18232     17238
     18235     17238     18238     17238     18241     17238     18244     17238
     18247     17238     18250     17238     18253     17238     18256     17238
     18259     17238     18262     17238     18265     17238     18268     17238
     18271     17238     18274     17238     18277     17238     18280     17238
     18283     17238     18286     17238     18289     17238     18292     17238
     18295     17238     18298     17238     18301     17238     18304     17238
     18307     17238     18310     17238     18313     17238     18316     17238
     18319     17238     18322     17238     18325     17238     18328     17238
     18331     17238     18334     17238     18337     17238     18340     17238
     18343     17238     18346     17238     18349     17238     18352     17238
     18355     17238     18358     17238     18361     17238     18364     17238
     18367     17238     18370     17238     18373     17238     18376     17238
     18379     17238     18382     17238     18385     17238     18388     17238
     18391     17238     18394     17238     18397     17238     18400     17238
     18403     17238     18406     17238     18409     17238     18412     17238
     18415     17238     18418     17238     18421     17238     18424     17238
     18427     17238     18430     17238     18433     17238     18436     17238
     18439     17238     18442     17238     18445     17238     18448     17238
     18451     17238     18454     17238     18457     17238     18460     17238
     18463     17238     18466     17238     18469     17238     18472     17238
     18475     17238     18478     17238     18481     17238     18484     17238
     18487     17238     18490     17238     18493     17238     18496     17238
     18499     17238     18502     17238     18505     17238     18508     17238
     18511     17238     18514     17238     18517     17238     18520     17238
     18523     17238     18526     17238     18529     17238     18532     17238
     18535     17238     18538     17238     18541     17238     18544     17238
     18547     17238     18550     17238     18553     17238     18556     17238
     18559     17238     18562     17238     18565     17238     18568     17238
     18571     17238     18574     17238     18577     17238     18580     17238
     18583     17238     18586     17238     18589     17238     18592     17238
     18595     17238     18598     17238     18601     17238     18604     17238
     18607     17238     18610     17238     18613     17238     18616     17238
     18619     17238     18622     17238     18625     17238     18628     17238
     18631     17238     18634     17238     18637     17238     18640     17238
     18643     17238     18646     17238     18649     17238     18652     17238
     18655     17238     18658     17238     18661     17238     18664     17238
     18667     17238     18670     17238     18673     17238     18676     17238
     18679     17238     18682     17238     18685     17238     18688     17238
     18691     17238     18694     17238     18697     17238     18700     17238
     18703     17238     18706     17238     18709     17238     18712     17238
     18715     17238     18718     17238     18721     17238     18724     17238
     18727     17238     18730     17238     18733     17238     18736     17238
     18739     17238     18742     17238     18745     17238     18748     17238
     18751     17238     18754     17238     18757     17238     18760     17238
     18763     17238     18766     17238     18769     17238     18772     17238
     18775     17238     18778     17238     18781     17238     18784     17238
     18787     17238     18790     17238     18793     17238     18796     17238
     18799     17238     18802     17238     18805     17238     18808     17238
     18811     17238     18814     17238     18817     17238     18820     17238
     18823     17238     18826     17238     18829     17238     18832     17238
     18835     17238     18838     17238     18841     17238     18844     17238
     18847     17238     18850     17238     18853     17238     18856     17238
     18859     17238     18862     17238     18865     17238     18868     17238
     18871     17238     18874     17238     18877     17238     18880     17238
     18883     17238     18886     17238     18889     17238     18892     17238
     18895     17238     18898     17238     18901     17238     18904     17238
     18907     17238     18910     17238     18913     17238     18916     17238
     18919     17238     18922     17238     18925     17238     18928     17238
     18931     17238     18934     17238     18937     17238     18940     17238
     18943     17238     18946     17238     18949     17238     18952     17238
     18955     17238     18958     17238     18961     17238     18964     17238
     18967     17238     18970     17238     18973     17238     18976     17238
     18979     17238     18982     17238     18985     17238     18988     17238
     18991     17238     18994     17238     18997     17238     19000     17238
     19003     17238     19006     17238     19009     17238     19012     17238
     19015     17238     19018     17238     19021     17238     19024     17238
     19027     17238     19030     17238     19033     17238     19036     17238
     19039     17238     19042     17238     19045     17238     19048     17238
     19051     17238     19054     17238     19057     17238     19060     17238
     19063     17238     19066     17238     19069     17238     19072     17238
     19075     17238     19078     17238     19081     17238     19084     17238
     19087     17238     19090     17238     19093     17238     19096     17238
     19099     17238     19102     17238     19105     17238     19108     17238
     19111     17238     19114     17238     19117     17238     19120     17238
     19123     17238     19126     17238     19129     17238     19132     17238
     19135     17238     19138     17238     19141     17238     19144     17238
     19147     17238     19150     17238     19153     17238     19156     17238
     19159     17238     19162     17238     19165     17238     19168     17238
     19171     17238     19174     17238     19177     17238     19180     17238
     19183     17238     19186     17238     19189     17238     19192     17238
     19195     17238     19198     17238     19201     17238     19204     17238
     19207     17238     19210     17238     19213     17238     19216     17238
     19219     17238     19222     17238     19225     17238     19228     17238
     19231     17238     19234     17238     19237     17238     19240     17238
     19243     17238     19246     17238     19249     17238     19252     17238
     19255     17238     19258     17238     19261     17238     19264     17238
     19267     17238     19270     17238     19273     17238     19276     17238
     19279     17238     19282     17238     19285     17238     19288     17238
     19291     17238     19294     17238     19297     17238     19300     17238
     19303     17238     19306     17238     19309     17238     19312     17238
     19315     17238     19318     17238     19321     17238     19324     17238
     19327     17238     19330     17238     19333     17238     19336     17238
     19339     17238     19342     17238     19345     17238     19348     17238
     19351     17238     19354     17238     19357     17238     19360     17238
     19363     17238     19366     17238     19369     17238     19372     17238
     19375     17238     19378     17238     19381     17238     19384     17238
     19387     17238     19390     17238     19393     17238     19396     17238
     19399     17238     19402     17238     19405     17238     19408     17238
     19411     17238     19414     17238     19417     17238     19420     17238
     19423     17238     19426     17238     19429     17238     19432     17238
     19435     17238     19438     17238     19441     17238     19444     17238
     19447     17238     19450     17238     19453     17238     19456     17238
     19459     17238     19462     17238     19465     17238     19468     17238
     19471     17238     19474     17238     19477     17238     19480     17238
     19483     17238     19486     17238     19489     17238     19492     17238
     19495     17238     19498     17238     19501     17238     19504     17238
     19507     17238     19510     17238     19513     17238     19516     17238
     19519     17238     19522     17238     19525     17238     19528     17238
     19531     17238     19534     17238     19537     17238     19540     17238
     19543     17238     19546     17238     19549     17238     19552     17238
     19555     17238     19558     17238     19561     17238     19564     17238
     19567     17238     19570     17238     19573     17238     19576     17238
     19579     17238     19582     17238     19585     17238     19588     17238
     19591     17238     19594     17238     19597     17238     19600     17238
     19603     17238     19606     17238     19609     17238     19612     17238
     19615     17238     19618     17238     19621     17238     19624     17238
     19627     17238     19630     17238     19633     17238     19636     17238
     19639     17238     19642     17238     19645     17238     19648     17238
     19651     17238     19654     17238     19657     17238     19660     17238
     19663     17238     19666     17238     19669     17238     19672     17238
     19675     17238     19678     17238     19681     17238     19684     17238
     19687     17238     19690     17238     19693     17238     19696     17238
     19699     17238     19702     17238     19705     17238     19708     17238
     19711     17238     19714     17238     19717     17238     19720     17238
     19723     17238     19726     17238     19729     17238     19732     17238
     19735     17238     19738     17238     19741     17238     19744     17238
     19747     17238     19750     17238     19753     17238     19756     17238
     19759     17238     19762     17238     19765     17238     19768     17238
     19771     17238     19774     17238     19777     17238     19780     17238
     19783     17238     19786     17238     19789     17238     19792     17238
     19795     17238     19798     17238     19801     17238     19804     17238
     19807     17238     19810     17238     19813     17238     19816     17238
     19819     17238     19822     17238     19825     17238     19828     17238
     19831     17238     19834     17238     19837     17238     19840     17238
     19843     17238     19846     17238     19849     17238     19852     17238
     19855     17238     19858     17238     19861     17238     19864     17238
     19867     17238     19870     17238     19873     17238     19876     17238
     19879     17238     19882     17238     19885     17238     19888     17238
     19891     17238     19894     17238     19897     17238     19900     17238
     19903     17238     19906     17238     19909     17238     19912     17238
     19915     17238     19918     17238     19921     17238     19924     17238
     19927     17238     19930     17238     19933     17238     19936     17238
     19939     17238     19942     17238     19945     17238     19948     17238
     19951     17238     19954     17238     19957     17238     19960     17238
     19963     17238     19966     17238     19969     17238     19972     17238
     19975     17238     19978     17238     19981     17238     19984     17238
     19987     17238     19990     17238     19993     17238     19996     17238
     19999     17238     20002     17238     20005     17238     20008     17238
     20011     17238     20014     17238     20017     17238     20020     17238
     20023     17238     20026     17238     20029     17238     20032     17238
     20035     17238     20038     17238     20041     17238     20044     17238
     20047     17238     20050     17238     20053     17238     20056     17238
     20059     17238     20062     17238     20065     17238     20068     17238
     20071     17238     20074     17238     20077     17238     20080     17238
     20083     17238     20086     17238     20089     17238     20092     17238
     20095     17238     20098     17238     20101     17238     20104     17238
     20107     17238     20110     17238     20113     17238     20116     17238
     20119     17238     20122     17238     20125     17238     20128     17238
     20131     17238     20134     17238     20137     17238     20140     17238
     20143     17238     20146     17238     20149     17238     20152     17238
     20155     17238     20158     17238     20161     17238     20164     17238
     20167     17238     20170     17238     20173     17238     20176     17238
     20179     17238     20182     17238     20185     17238     20188     17238
     20191     17238     20194     17238     20197     17238     20200     17238
     20203     17238     20206     17238     20209     17238     20212     17238
     20215     17238     20218     17238     20221     17238     20224     17238
     20227     17238     20230     17238     20233     17238     20236     17238
     20239     17238     20242     17238     20245     17238     20248     17238
     20251     17238     20254     17238     20257     17238     20260     17238
     20263     17238     20266     17238     20269     17238     20272     17238
     20275     17238     20278     17238     20281     17238     20284     17238
     20287     17238     20290     17238     20293     17238     20296     17238
     20299     17238     20302     17238     20305     17238     20308     17238
     20311     17238     20314     17238     20317     17238     20320     17238
     20323     17238     20326     17238     20329     17238     20332     17238
     20335     17238     20338     17238     20341     17238     20344     17238
     20347     17238     20350     17238     20353     17238     20356     17238
     20359     17238     20362     17238     20365     17238     20368     17238
     20371     17238     20374     17238     20377     17238     20380     17238
     20383     17238     20386     17238     20389     17238     20392     17238
     20395     17238     20398     17238     20401     17238     20404     17238
     20407     17238     20410     17238     20413     17238     20416     17238
     20419     17238     20422     17238     20425     17238     20428     17238
     20431     17238     20434     17238     20437     17238     20440     17238
     20443     17238     20446     17238     20449     17238     20452     17238
     20455     17238     20458     17238     20461     17238     20464     17238
     20467     17238     20470     17238     20473     17238     20476     17238
     20479     17238     20482     17238     20485     17238     20488     17238
     20491     17238     20494     17238     20497     17238     20500     17238
     20503     17238     20506     17238     20509     17238     20512     17238
     20515     17238     20518     17238     20521     17238     20524     17238
     20527     17238     20530     17238     20533     17238     20536     17238
     20539     17238     20542     17238     20545     17238     20548     17238
     20551     17238     20554     17238     20557     17238     20560     17238
     20563     17238     20566     17238     20569     17238     20572     17238
     20575     17238     20578     17238     20581     17238     20584     17238
     20587     17238     20590     17238     20593     17238     20596     17238
     20599     17238     20602     17238     20605     17238     20608     17238
     20611     17238     20614     17238     20617     17238     20620     17238
     20623     17238     20626     17238     20629     17238     20632     17238
     20635     17238     20638     17238     20641     17238     20644     17238
     20647     17238     20650     17238     20653     17238     20656     17238
     20659     17238     20662     17238     20665     17238     20668     17238
     20671     17238     20674     17238     20677     17238     20680     17238
     20683     17238     20686     17238     20689     17238     20692     17238
     20695     17238     20698     17238     20701     17238     20704     17238
     20707     17238     20710     17238     20713     17238     20716     17238
     20719     17238     20722     17238     20725     17238     20728     17238
     20731     17238     20734     17238     20737     17238     20740     17238
     20743     17238     20746     17238     20749     17238     20752     17238
     20755     17238     20758     17238     20761     17238     20764     17238
     20767     17238     20770     17238     20773     17238     20776     17238
     20779     17238     20782     17238     20785     17238     20788     17238
     20791     17238     20794     17238     20797     17238     20800     17238
     20803     17238     20806     17238     20809     17238     20812     17238
     20815     17238     20818     17238     20821     17238     20824     17238
     20827     17238     20830     17238     20833     17238     20836     17238
     20839     17238     20842     17238     20845     17238     20848     17238
     20851     17238     20854     17238     20857     17238     20860     17238
     20863     17238     20866     17238     20869     17238     20872     17238
     20875     17238     20878     17238     20881     17238     20884     17238
     20887     17238     20890     17238     20893     17238     20896     17238
     20899     17238     20902     17238     20905     17238     20908     17238
     20911     17238     20914     17238     20917     17238     20920     17238
     20923     17238     20926     17238     20929     17238     20932     17238
     20935     17238     20938     17238     20941     17238     20944     17238
     20947     17238     20950     17238     20953     17238     20956     17238
     20959     17238     20962     17238     20965     17238     20968     17238
     20971     17238     20974     17238     20977     17238     20980     17238
     20983     17238     20986     17238     20989     17238     20992     17238
     20995     17238     20998     17238     21001     17238     21004     17238
     21007     17238     21010     17238     21013     17238     21016     17238
     21019     17238     21022     17238     21025     17238     21028     17238
     21031     17238     21034     17238     21037     17238     21040     17238
     21043     17238     21046     17238     21049     17238     21052     17238
     21055     17238     21058     17238     21061     17238     21064     17238
     21067     17238     21070     17238     21073     17238     21076     17238
     21079     17238     21082     17238     21085     17238     21088     17238
     21091     17238     21094     17238     21097     17238     21100     17238
     21103     17238     21106     17238     21109     17238     21112     17238
     21115     17238     21118     17238     21121     17238     21124     17238
     21127     17238     21130     17238     21133     17238     21136     17238
     21139     17238     21142     17238     21145     17238     21148     17238
     21151     17238     21154     17238     21157     17238     21160     17238
     21163     17238     21166     17238     21169     17238     21172     17238
     21175     17238     21178     17238     21181     17238     21184     17238
     21187     17238     21190     17238     21193     17238     21196     17238
     21199     17238     21202     17238     21205     17238     21208     17238
     21211     17238     21214     17238     21217     17238     21220     17238
     21223     17238     21226     17238     21229     17238     21232     17238
     21235     17238     21238     17238     21241     17238     21244     17238
     21247     17238     21250     17238     21253     17238     21256     17238
     21259     17238     21262     17238     21265     17238     21268     17238
     21271     17238     21274     17238     21277     17238     21280     17238
     21283     17238     21286     17238     21289     17238     21292     17238
     21295     17238     21298     17238     21301     17238     21304     17238
     21307     17238     21310     17238     21313     17238     21316     17238
     21319     17238     21322     17238     21325     17238     21328     17238
     21331     17238     21334     17238     21337     17238     21340     17238
     21343     17238     21346     17238     21349     17238     21352     17238
     21355     17238     21358     17238     21361     17238     21364     17238
     21367     17238     21370     17238     21373     17238     21376     17238
     21379     17238     21382     17238     21385     17238     21388     17238
     21391     17238     21394     17238     21397     17238     21400     17238
     21403     17238     21406     17238     21409     17238     21412     17238
     21415     17238     21418     17238     21421     17238     21424     17238
     21427     17238     21430     17238     21433     17238     21436     17238
     21439     17238     21442     17238     21445     17238     21448     17238
     21451     17238     21454     17238     21457     17238     21460     17238
     21463     17238     21466     17238     21469     17238     21472     17238
     21475     17238     21478     17238     21481     17238     21484     17238
     21487     17238     21490     17238     21493     17238     21496     17238
     21499     17238     21502     17238     21505     17238     21508     17238
     21511     17238     21514     17238     21517     17238     21520     17238
     21523     17238     21526     17238     21529     17238     21532     17238
     21535     17238     21538     17238     21541     17238     21544     17238
     21547     17238     21550     17238     21553     17238     21556     17238
     21559     17238     21562     17238     21565     17238     21568     17238
     21571     17238     21574     17238     21577     17238     21580     17238
     21583     17238     21586     17238     21589     17238     21592     17238
     21595     17238     21598     17238     21601     17238     21604     17238
     21607     17238     21610     17238     21613     17238     21616     17238
     21619     17238     21622     17238     21625     17238     21628     17238
     21631     17238     21634     17238     21637     17238     21640     17238
     21643     17238     21646     17238     21649     17238     21652     17238
     21655     17238     21658     17238     21661     17238     21664     17238
     21667     17238     21670     17238     21673     17238     21676     17238
     21679     17238     21682     17238     21685     17238     21688     17238
     21691     17238     21694     17238     21697     17238     21700     17238
     21703     17238     21706     17238     21709     17238     21712     17238
     21715     17238     21718     17238     21721     17238     21724     17238
     21727     17238     21730     17238     21733     17238     21736     17238
     21739     17238     21742     17238     21745     17238     21748     17238
     21751     17238     21754     17238     21757     17238     21760     17238
     21763     17238     21766     17238     21769     17238     21772     17238
     21775     17238     21778     17238     21781     17238     21784     17238
     21787     17238     21790     17238     21793     17238     21796     17238
     21799     17238     21802     17238     21805     17238     21808     17238
     21811     17238     21814     17238     21817     17238     21820     17238
     21823     17238     21826     17238     21829     17238     21832     17238
     21835     17238     21838     17238     21841     17238     21844     17238
     21847     17238     21850     17238     21853     17238     21856     17238
     21859     17238     21862     17238     21865     17238     21868     17238
     21871     17238     21874     17238     21877     17238     21880     17238
     21883     17238     21886     17238     21889     17238     21892     17238
     21895     17238     21898     17238     21901     17238     21904     17238
     21907     17238     21910     17238     21913     17238     21916     17238
     21919     17238     21922     17238     21925     17238     21928     17238
     21931     17238     21934     17238     21937     17238     21940     17238
     21943     17238     21946     17238     21949     17238     21952     17238
     21955     17238     21958     17238     21961     17238     21964     17238
     21967     17238     21970     17238     21973     17238     21976     17238
     21979     17238     21982     17238     21985     17238     21988     17238
     21991     17238     21994     17238     21997     17238     22000     17238
     22003     17238     22006     17238     22009     17238     22012     17238
     22015     17238     22018     17238     22021     17238     22024     17238
     22027     17238     22030     17238     22033     17238     22036     17238
     22039     17238     22042     17238     22045     17238     22048     17238
     22051     17238     22054     17238     22057     17238     22060     17238
     22063     17238     22066     17238     22069     17238     22072     17238
     22075     17238     22078     17238     22081     17238     22084     17238
     22087     17238     22090     17238     22093     17238     22096     17238
     22099     17238     22102     17238     22105     17238     22108     17238
     22111     17238     22114     17238     22117     17238     22120     17238
     22123     17238     22126     17238     22129     17238     22132     17238
     22135     17238     22138     17238     22141     17238     22144     17238
     22147     17238     22150     17238     22153     17238     22156     17238
     22159     17238     22162     17238     22165     17238     22168     17238
     22171     17238     22174     17238     22177     17238     22180     17238
     22183     17238     22186     17238     22189     17238     22192     17238
     22195     17238     22198     17238     22201     17238     22204     17238
     22207     17238     22210     17238     22213     17238     22216     17238
     22219     17238     22222     17238     22225     17238     22228     17238
     22231     17238     22234     17238     22237     17238     22240     17238
     22243     17238     22246     17238     22249     17238     22252     17238
     22255     17238     22258     17238     22261     17238     22264     17238
     22267     17238     22270     17238     22273     17238     22276     17238
     22279     17238     22282     17238     22285     17238     22288     17238
     22291     17238     22294     17238     22297     17238     22300     17238
     22303     17238     22306     17238     22309     17238     22312     17238
     22315     17238     22318     17238     22321     17238     22324     17238
     22327     17238     22330     17238     22333     17238     22336     17238
     22339     17238     22342     17238     22345     17238     22348     17238
     22351     17238     22354     17238     22357     17238     22360     17238
     22363     17238     22366     17238     22369     17238     22372     17238
     22375     17238     22378     17238     22381     17238     22384     17238
     22387     17238     22390     17238     22393     17238     22396     17238
     22399     17238     22402     17238     22405     17238     22408     17238
     22411     17238     22414     17238     22417     17238     22420     17238
     22423     17238     22426     17238     22429     17238     22432     17238
     22435     17238     22438     17238     22441     17238     22444     17238
     22447     17238     22450     17238     22453     17238     22456     17238
     22459     17238     22462     17238     22465     17238     22468     17238
     22471     17238     22474     17238     22477     17238     22480     17238
     22483     17238     22486     17238     22489     17238     22492     17238
     22495     17238     22498     17238     22501     17238     22504     17238
     22507     17238     22510     17238     22513     17238     22516     17238
     22519     17238     22522     17238     22525     17238     22528     17238
     22531     17238     22534     17238     22537     17238     22540     17238
     22543     17238     22546     17238     22549     17238     22552     17238
     22555     17238     22558     17238     22561     17238     22564     17238
     22567     17238     22570     17238     22573     17238     22576     17238
     22579     17238     22582     17238     22585     17238     22588     17238
     22591     17238     22594     17238     22597     17238     22600     17238
     22603     17238     22606     17238     22609     17238     22612     17238
     22615     17238     22618     17238     22621     17238     22624     17238
     22627     17238     22630     17238     22633     17238     22636     17238
     22639     17238     22642     17238     22645     17238     22648     17238
     22651     17238     22654     17238     22657     17238     22660     17238
     22663     17238     22666     17238     22669     17238     22672     17238
     22675     17238     22678     17238     22681     17238     22684     17238
     22687     17238     22690     17238     22693     17238     22696     17238
     22699     17238     22702     17238     22705     17238     22708     17238
     22711     17238     22714     17238     22717     17238     22720     17238
     22723     17238     22726     17238     22729     17238     22732     22731
     22735     22731     22738     22731     22741     22731     22744     22731
     22747     22731     22750     22731     22753     22731     22756     22731
     22759     22731     22762     22731     22765     22731     22768     22731
     22771     22731     22774     22731     22777     22731     22780     22731
     22783     22731     22786     22731     22789     22731     22792     22731
     22795     22731     22798     22731     22801     22731     22804     22731
     22807     22731     22810     22731     22813     22731     22816     22731
     22819     22731     22822     22731     22825     22731     22828     22731
     22831     22731     22834     22731     22837     22731     22840     22731
     22843     22731     22846     22731     22849     22731     22852     22731
     22855     22731     22858     22731     22861     22731     22864     22731
     22867     22731     22870     22731     22873     22731     22876     22731
     22879     22731     22882     22731     22885     22731     22888     22731
     22891     22731     22894     22731     22897     22731     22900     22731
     22903     22731     22906     22731     22909     22731     22912     22731
     22915     22731     22918     22731     22921     22731     22924     22731
     22927     22731     22930     22731     22933     22731     22936     22731
     22939     22731     22942     22731     22945     22731     22948     22731
     22951     22731     22954     22731     22957     22731     22960     22731
     22963     22731     22966     22731     22969     22731     22972     22731
     22975     22731     22978     22731     22981     22731     22984     22731
     22987     22731     22990     22731     22993     22731     22996     22731
     22999     22731     23002     22731     23005     22731     23008     22731
     23011     22731     23014     22731     23017     22731     23020     22731
     23023     22731     23026     22731     23029     22731     23032     22731
     23035     22731     23038     22731     23041     22731     23044     22731
     23047     22731     23050     22731     23053     22731     23056     22731
     23059     22731     23062     22731     23065     22731     23068     22731
     23071     22731     23074     22731     23077     22731     23080     22731
     23083     22731     23086     22731     23089     22731     23092     22731
     23095     22731     23098     22731     23101     22731     23104     22731
     23107     22731     23110     22731     23113     22731     23116     22731
     23119     22731     23122     22731     23125     22731     23128     22731
     23131     22731     23134     22731     23137     22731     23140     22731
     23143     22731     23146     22731     23149     22731     23152     22731
     23155     22731     23158     22731     23161     22731     23164     22731
     23167     22731     23170     22731     23173     22731     23176     22731
     23179     22731     23182     22731     23185     22731     23188     22731
     23191     22731     23194     22731     23197     22731     23200     22731
     23203     22731     23206     22731     23209     22731     23212     22731
     23215     22731     23218     22731     23221     22731     23224     22731
     23227     22731     23230     22731     23233     22731     23236     22731
     23239     22731     23242     22731     23245     22731     23248     22731
     23251     22731     23254     22731     23257     22731     23260     22731
     23263     22731     23266     22731     23269     22731     23272     22731
     23275     22731     23278     22731     23281     22731     23284     22731
     23287     22731     23290     22731     23293     22731     23296     22731
     23299     22731     23302     22731     23305     22731     23308     22731
     23311     22731     23314     22731     23317     22731     23320     22731
     23323     22731     23326     22731     23329     22731     23332     22731
     23335     22731     23338     22731     23341     22731     23344     22731
     23347     22731     23350     22731     23353     22731     23356     22731
     23359     22731     23362     22731     23365     22731     23368     22731
     23371     22731     23374     22731     23377     22731     23380     22731
     23383     22731     23386     22731     23389     22731     23392     22731
     23395     22731     23398     22731     23401     22731     23404     22731
     23407     22731     23410     22731     23413     22731     23416     22731
     23419     22731     23422     22731     23425     22731     23428     22731
     23431     22731     23434     22731     23437     22731     23440     22731
     23443     22731     23446     22731     23449     22731     23452     22731
     23455     22731     23458     22731     23461     22731     23464     22731
     23467     22731     23470     22731     23473     22731     23476     22731
     23479     22731     23482     22731     23485     22731     23488     22731
     23491     22731     23494     22731     23497     22731     23500     22731
     23503     22731     23506     22731     23509     22731     23512     22731
     23515     22731     23518     22731     23521     22731     23524     22731
     23527     22731     23530     22731     23533     22731     23536     22731
     23539     22731     23542     22731     23545     22731     23548     22731
     23551     22731     23554     22731     23557     22731     23560     22731
     23563     22731     23566     22731     23569     22731     23572     22731
     23575     22731     23578     22731     23581     22731     23584     22731
     23587     22731     23590     22731     23593     22731     23596     22731
     23599     22731     23602     22731     23605     22731     23608     22731
     23611     22731     23614     22731     23617     22731     23620     22731
     23623     22731     23626     22731     23629     22731     23632     22731
     23635     22731     23638     22731     23641     22731     23644     22731
     23647     22731     23650     22731     23653     22731     23656     22731
     23659     22731     23662     22731     23665     22731     23668     22731
     23671     22731     23674     22731     23677     22731     23680     22731
     23683     22731     23686     22731     23689     22731     23692     22731
     23695     22731     23698     22731     23701     22731     23704     22731
     23707     22731     23710     22731     23713     22731     23716     22731
     23719     22731     23722     22731     23725     22731     23728     22731
     23731     22731     23734     22731     23737     22731     23740     22731
     23743     22731     23746     22731     23749     22731     23752     22731
     23755     22731     23758     22731     23761     22731     23764     22731
     23767     22731     23770     22731     23773     22731     23776     22731
     23779     22731     23782     22731     23785     22731     23788     22731
     23791     22731     23794     22731     23797     22731     23800     22731
     23803     22731     23806     22731     23809     22731     23812     22731
     23815     22731     23818     22731     23821     22731     23824     22731
     23827     22731     23830     22731     23833     22731     23836     22731
     23839     22731     23842     22731     23845     22731     23848     22731
     23851     22731     23854     22731     23857     22731     23860     22731
     23863     22731     23866     22731     23869     22731     23872     22731
     23875     22731     23878     22731     23881     22731     23884     22731
     23887     22731     23890     22731     23893     22731     23896     22731
     23899     22731     23902     22731     23905     22731     23908     22731
     23911     22731     23914     22731     23917     22731     23920     22731
     23923     22731     23926     22731     23929     22731     23932     22731
     23935     22731     23938     22731     23941     22731     23944     22731
     23947     22731     23950     22731     23953     22731     23956     22731
     23959     22731     23962     22731     23965     22731     23968     22731
     23971     22731     23974     22731     23977     22731     23980     22731
     23983     22731     23986     22731     23989     22731     23992     22731
     23995     22731     23998     22731     24001     22731     24004     22731
     24007     22731     24010     22731     24013     22731     24016     22731
     24019     22731     24022     22731     24025     22731     24028     22731
     24031     22731     24034     22731     24037     22731     24040     22731
     24043     22731     24046     22731     24049     22731     24052     22731
     24055     22731     24058     22731     24061     22731     24064     22731
     24067     22731     24070     22731     24073     22731     24076     22731
     24079     22731     24082     22731     24085     22731     24088     22731
     24091     22731     24094     22731     24097     22731     24100     22731
     24103     22731     24106     22731     24109     22731     24112     22731
     24115     22731     24118     22731     24121     22731     24124     22731
     24127     22731     24130     22731     24133     22731     24136     22731
     24139     22731     24142     22731     24145     22731     24148     22731
     24151     22731     24154     22731     24157     22731     24160     22731
     24163     22731     24166     22731     24169     22731     24172     22731
     24175     22731     24178     22731     24181     22731     24184     22731
     24187     22731     24190     22731     24193     22731     24196     22731
     24199     22731     24202     22731     24205     22731     24208     22731
     24211     22731     24214     22731     24217     22731     24220     22731
     24223     22731     24226     22731     24229     22731     24232     22731
     24235     22731     24238     22731     24241     22731     24244     22731
     24247     22731     24250     22731     24253     22731     24256     22731
     24259     22731     24262     22731     24265     22731     24268     22731
     24271     22731     24274     22731     24277     22731     24280     22731
     24283     22731     24286     22731     24289     22731     24292     22731
     24295     22731     24298     22731     24301     22731     24304     22731
     24307     22731     24310     22731     24313     22731     24316     22731
     24319     22731     24322     22731     24325     22731     24328     22731
     24331     22731     24334     22731     24337     22731     24340     22731
     24343     22731     24346     22731     24349     22731     24352     22731
     24355     22731     24358     22731     24361     22731     24364     22731
     24367     22731     24370     22731     24373     22731     24376     22731
     24379     22731     24382     22731     24385     22731     24388     22731
     24391     22731     24394     22731     24397     22731     24400     22731
     24403     22731     24406     22731     24409     22731     24412     22731
     24415     22731     24418     22731     24421     22731     24424     22731
     24427     22731     24430     22731     24433     22731     24436     22731
     24439     22731     24442     22731     24445     22731     24448     22731
     24451     22731     24454     22731     24457     22731     24460     22731
     24463     22731     24466     22731     24469     22731     24472     22731
     24475     22731     24478     22731     24481     22731     24484     22731
     24487     22731     24490     22731     24493     22731     24496     22731
     24499     22731     24502     22731     24505     22731     24508     22731
     24511     22731     24514     22731     24517     22731     24520     22731
     24523     22731     24526     22731     24529     22731     24532     22731
     24535     22731     24538     22731     24541     22731     24544     22731
     24547     22731     24550     22731     24553     22731     24556     22731
     24559     22731     24562     22731     24565     22731     24568     22731
     24571     22731     24574     22731     24577     22731     24580     22731
     24583     22731     24586     22731     24589     22731     24592     22731
     24595     22731     24598     22731     24601     22731     24604     22731
     24607     22731     24610     22731     24613     22731     24616     22731
     24619     22731     24622     22731     24625     22731     24628     22731
     24631     22731     24634     22731     24637     22731     24640     22731
     24643     22731     24646     22731     24649     22731     24652     22731
     24655     22731     24658     22731     24661     22731     24664     22731
     24667     22731     24670     22731     24673     22731     24676     22731
     24679     22731     24682     22731     24685     22731     24688     22731
     24691     22731     24694     22731     24697     22731     24700     22731
     24703     22731     24706     22731     24709     22731     24712     22731
     24715     22731     24718     22731     24721     22731     24724     22731
     24727     22731     24730     22731     24733     22731     24736     22731
     24739     22731     24742     22731     24745     22731     24748     22731
     24751     22731     24754     22731     24757     22731     24760     22731
     24763     22731     24766     22731     24769     22731     24772     22731
     24775     22731     24778     22731     24781     22731     24784     22731
     24787     22731     24790     22731     24793     22731     24796     22731
     24799     22731     24802     22731     24805     22731     24808     22731
     24811     22731     24814     22731     24817     22731     24820     22731
     24823     22731     24826     22731     24829     22731     24832     22731
     24835     22731     24838     22731     24841     22731     24844     22731
     24847     22731     24850     22731     24853     22731     24856     22731
     24859     22731     24862     22731     24865     22731     24868     22731
     24871     22731     24874     22731     24877     22731     24880     22731
     24883     22731     24886     22731     24889     22731     24892     22731
     24895     22731     24898     22731     24901     22731     24904     22731
     24907     22731     24910     22731     24913     22731     24916     22731
     24919     22731     24922     22731     24925     22731     24928     22731
     24931     22731     24934     22731     24937     22731     24940     22731
     24943     22731     24946     22731     24949     22731     24952     22731
     24955     22731     24958     22731     24961     22731     24964     22731
     24967     22731     24970     22731     24973     22731     24976     22731
     24979     22731     24982     22731     24985     22731     24988     22731
     24991     22731     24994     22731     24997     22731     25000     22731
     25003     22731     25006     22731     25009     22731     25012     22731
     25015     22731     25018     22731     25021     22731     25024     22731
     25027     22731     25030     22731     25033     22731     25036     22731
     25039     22731     25042     22731     25045     22731     25048     22731
     25051     22731     25054     22731     25057     22731     25060     22731
     25063     22731     25066     22731     25069     22731     25072     22731
     25075     22731     25078     22731     25081     22731     25084     22731
     25087     22731     25090     22731     25093     22731     25096     22731
     25099     22731     25102     22731     25105     22731     25108     22731
     25111     22731     25114     22731     25117     22731     25120     22731
     25123     22731     25126     22731     25129     22731     25132     22731
     25135     22731     25138     22731     25141     22731     25144     22731
     25147     22731     25150     22731     25153     22731     25156     22731
     25159     22731     25162     22731     25165     22731     25168     22731
     25171     22731     25174     22731     25177     22731     25180     22731
     25183     22731     25186     22731     25189     22731     25192     22731
     25195     22731     25198     22731     25201     22731     25204     22731
     25207     22731     25210     22731     25213     22731     25216     22731
     25219     22731     25222     22731     25225     22731     25228     22731
     25231     22731     25234     22731     25237     22731     25240     22731
     25243     22731     25246     22731     25249     22731     25252     22731
     25255     22731     25258     22731     25261     22731     25264     22731
     25267     22731     25270     22731     25273     22731     25276     22731
     25279     22731     25282     22731     25285     22731     25288     22731
     25291     22731     25294     22731     25297     22731     25300     22731
     25303     22731     25306     22731     25309     22731     25312     22731
     25315     22731     25318     22731     25321     22731     25324     22731
     25327     22731     25330     22731     25333     22731     25336     22731
     25339     22731     25342     22731     25345     22731     25348     22731
     25351     22731     25354     22731     25357     22731     25360     22731
     25363     22731     25366     22731     25369     22731     25372     22731
     25375     22731     25378     22731     25381     22731     25384     22731
     25387     22731     25390     22731     25393     22731     25396     22731
     25399     22731     25402     22731     25405     22731     25408     22731
     25411     22731     25414     22731     25417     22731     25420     22731
     25423     22731     25426     22731     25429     22731     25432     22731
     25435     22731     25438     22731     25441     22731     25444     22731
     25447     22731     25450     22731     25453     22731     25456     22731
     25459     22731     25462     22731     25465     22731     25468     22731
     25471     22731     25474     22731     25477     22731     25480     22731
     25483     22731     25486     22731     25489     22731     25492     22731
     25495     22731     25498     22731     25501     22731     25504     22731
     25507     22731     25510     22731     25513     22731     25516     22731
     25519     22731     25522     22731     25525     22731     25528     22731
     25531     22731     25534     22731     25537     22731     25540     22731
     25543     22731     25546     22731     25549     22731     25552     22731
     25555     22731     25558     22731     25561     22731     25564     22731
     25567     22731     25570     22731     25573     22731     25576     22731
     25579     22731     25582     22731     25585     22731     25588     22731
     25591     22731     25594     22731     25597     22731     25600     22731
     25603     22731     25606     22731     25609     22731     25612     22731
     25615     22731     25618     22731     25621     22731     25624     22731
     25627     22731     25630     22731     25633     22731     25636     22731
     25639     22731     25642     22731     25645     22731     25648     22731
     25651     22731     25654     22731     25657     22731     25660     22731
     25663     22731     25666     22731     25669     22731     25672     22731
     25675     22731     25678     22731     25681     22731     25684     22731
     25687     22731     25690     22731     25693     22731     25696     22731
     25699     22731     25702     22731     25705     22731     25708     22731
     25711     22731     25714     22731     25717     22731     25720     22731
     25723     22731     25726     22731     25729     22731     25732     22731
     25735     22731     25738     22731     25741     22731     25744     22731
     25747     22731     25750     22731     25753     22731     25756     22731
     25759     22731     25762     22731     25765     22731     25768     22731
     25771     22731     25774     22731     25777     22731     25780     22731
     25783     22731     25786     22731     25789     22731     25792     22731
     25795     22731     25798     22731     25801     22731     25804     22731
     25807     22731     25810     22731     25813     22731     25816     22731
     25819     22731     25822     22731     25825     22731     25828     22731
     25831     22731     25834     22731     25837     22731     25840     22731
     25843     22731     25846     22731     25849     22731     25852     22731
     25855     22731     25858     22731     25861     22731     25864     22731
     25867     22731     25870     22731     25873     22731     25876     22731
     25879     22731     25882     22731     25885     22731     25888     22731
     25891     22731     25894     22731     25897     22731     25900     22731
     25903     22731     25906     22731     25909     22731     25912     22731
     25915     22731     25918     22731     25921     22731     25924     22731
     25927     22731     25930     22731     25933     22731     25936     22731
     25939     22731     25942     22731     25945     22731     25948     22731
     25951     22731     25954     22731     25957     22731     25960     22731
     25963     22731     25966     22731     25969     22731     25972     22731
     25975     22731     25978     22731     25981     22731     25984     22731
     25987     22731     25990     22731     25993     22731     25996     22731
     25999     22731     26002     22731     26005     22731     26008     22731
     26011     22731     26014     22731     26017     22731     26020     22731
     26023     22731     26026     22731     26029     22731     26032     22731
     26035     22731     26038     22731     26041     22731     26044     22731
     26047     22731     26050     22731     26053     22731     26056     22731
     26059     22731     26062     22731     26065     22731     26068     22731
     26071     22731     26074     22731     26077     22731     26080     22731
     26083     22731     26086     22731     26089     22731     26092     22731
     26095     22731     26098     22731     26101     22731     26104     22731
     26107     22731     26110     22731     26113     22731     26116     22731
     26119     22731     26122     22731     26125     22731     26128     22731
     26131     22731     26134     22731     26137     22731     26140     22731
     26143     22731     26146     22731     26149     22731     26152     22731
     26155     22731     26158     22731     26161     22731     26164     22731
     26167     22731     26170     22731     26173     22731     26176     22731
     26179     22731     26182     22731     26185     22731     26188     22731
     26191     22731     26194     22731     26197     22731     26200     22731
     26203     22731     26206     22731     26209     22731     26212     22731
     26215     22731     26218     22731     26221     22731     26224     22731
     26227     22731     26230     22731     26233     22731     26236     22731
     26239     22731     26242     22731     26245     22731     26248     22731
     26251     22731     26254     22731     26257     22731     26260     22731
     26263     22731     26266     22731     26269     22731     26272     22731
     26275     22731     26278     22731     26281     22731     26284     22731
     26287     22731     26290     22731     26293     22731     26296     22731
     26299     22731     26302     22731     26305     22731     26308     22731
     26311     22731     26314     22731     26317     22731     26320     22731
     26323     22731     26326     22731     26329     22731     26332     22731
     26335     22731     26338     22731     26341     22731     26344     22731
     26347     22731     26350     22731     26353     22731     26356     22731
     26359     22731     26362     22731     26365     22731     26368     22731
     26371     22731     26374     22731     26377     22731     26380     22731
     26383     22731     26386     22731     26389     22731     26392     22731
     26395     22731     26398     22731     26401     22731     26404     22731
     26407     22731     26410     22731     26413     22731     26416     22731
     26419     22731     26422     22731     26425     22731     26428     22731
     26431     22731     26434     22731     26437     22731     26440     22731
     26443     22731     26446     22731     26449     22731     26452     22731
     26455     22731     26458     22731     26461     22731     26464     22731
     26467     22731     26470     22731     26473     22731     26476     22731
     26479     22731     26482     22731     26485     22731     26488     22731
     26491     22731     26494     22731     26497     22731     26500     22731
     26503     22731     26506     22731     26509     22731     26512     22731
     26515     22731     26518     22731     26521     22731     26524     22731
     26527     22731     26530     22731     26533     22731     26536     22731
     26539     22731     26542     22731     26545     22731     26548     22731
     26551     22731     26554     22731     26557     22731     26560     22731
     26563     22731     26566     22731     26569     22731     26572     22731
     26575     22731     26578     22731     26581     22731     26584     22731
     26587     22731     26590     22731     26593     22731     26596     22731
     26599     22731     26602     22731     26605     22731     26608     22731
     26611     22731     26614     22731     26617     22731     26620     22731
     26623     22731     26626     22731     26629     22731     26632     22731
     26635     22731     26638     22731     26641     22731     26644     22731
     26647     22731     26650     22731     26653     22731     26656     22731
     26659     22731     26662     22731     26665     22731     26668     22731
     26671     22731     26674     22731     26677     22731     26680     22731
     26683     22731     26686     22731     26689     22731     26692     22731
     26695     22731     26698     22731     26701     22731     26704     22731
     26707     22731     26710     22731     26713     22731     26716     22731
     26719     22731     26722     22731     26725     22731     26728     22731
     26731     22731     26734     22731     26737     22731     26740     22731
     26743     22731     26746     22731     26749     22731     26752     22731
     26755     22731     26758     22731     26761     22731     26764     22731
     26767     22731     26770     22731     26773     22731     26776     22731
     26779     22731     26782     22731     26785     22731     26788     22731
     26791     22731     26794     22731     26797     22731     26800     22731
     26803     22731     26806     22731     26809     22731     26812     22731
     26815     22731     26818     22731     26821     22731     26824     22731
     26827     22731     26830     22731     26833     22731     26836     22731
     26839     22731     26842     22731     26845     22731     26848     22731
     26851     22731     26854     22731     26857     22731     26860     22731
     26863     22731     26866     22731     26869     22731     26872     22731
     26875     22731     26878     22731     26881     22731     26884     22731
     26887     22731     26890     22731     26893     22731     26896     22731
     26899     22731     26902     22731     26905     22731     26908     22731
     26911     22731     26914     22731     26917     22731     26920     22731
     26923     22731     26926     22731     26929     22731     26932     22731
     26935     22731     26938     22731     26941     22731     26944     22731
     26947     22731     26950     22731     26953     22731     26956     22731
     26959     22731     26962     22731     26965     22731     26968     22731
     26971     22731     26974     22731     26977     22731     26980     22731
     26983     22731     26986     22731     26989     22731     26992     22731
     26995     22731     26998     22731     27001     22731     27004     22731
     27007     22731     27010     22731     27013     22731     27016     22731
     27019     22731     27022     22731     27025     22731     27028     22731
     27031     22731     27034     22731     27037     22731     27040     22731
     27043     22731     27046     22731     27049     22731     27052     22731
     27055     22731     27058     22731     27061     22731     27064     22731
     27067     22731     27070     22731     27073     22731     27076     22731
     27079     22731     27082     22731     27085     22731     27088     22731
     27091     22731     27094     22731     27097     22731     27100     22731
     27103     22731     27106     22731     27109     22731     27112     22731
     27115     22731     27118     22731     27121     22731     27124     22731
     27127     22731     27130     22731     27133     22731     27136     22731
     27139     22731     27142     22731     27145     22731     27148     22731
     27151     22731     27154     22731     27157     22731     27160     22731
     27163     22731     27166     22731     27169     22731     27172     22731
     27175     22731     27178     22731     27181     22731     27184     22731
     27187     22731     27190     22731     27193     22731     27196     22731
     27199     22731     27202     22731     27205     22731     27208     22731
     27211     22731     27214     22731     27217     22731     27220     22731
     27223     22731     27226     22731     27229     22731     27232     22731
     27235     22731     27238     22731     27241     22731     27244     22731
     27247     22731     27250     22731     27253     22731     27256     22731
     27259     22731     27262     22731     27265     22731     27268     22731
     27271     22731     27274     22731     27277     22731     27280     22731
     27283     22731     27286     22731     27289     22731     27292     22731
     27295     22731     27298     22731     27301     22731     27304     22731
     27307     22731     27310     22731     27313     22731     27316     22731
     27319     22731     27322     22731     27325     22731     27328     22731
     27331     22731     27334     22731     27337     22731     27340     22731
     27343     22731     27346     22731     27349     22731     27352     22731
     27355     22731     27358     22731     27361     22731     27364     22731
     27367     22731     27370     22731     27373     22731     27376     22731
     27379     22731     27382     22731     27385     22731     27388     22731
     27391     22731     27394     22731     27397     22731     27400     22731
     27403     22731     27406     22731     27409     22731     27412     22731
     27415     22731     27418     22731     27421     22731     27424     22731
     27427     22731     27430     22731     27433     22731     27436     22731
     27439     22731     27442     22731     27445     22731     27448     22731
     27451     22731     27454     22731     27457     22731     27460     22731
     27463     22731     27466     22731     27469     22731     27472     22731
     27475     22731     27478     22731     27481     22731     27484     22731
     27487     22731     27490     22731     27493     22731     27496     22731
     27499     22731     27502     22731     27505     22731     27508     22731
     27511     22731     27514     22731     27517     22731     27520     22731
     27523     22731     27526     22731     27529     22731     27532     22731
     27535     22731     27538     22731     27541     22731     27544     22731
     27547     22731     27550     22731     27553     22731     27556     22731
     27559     22731     27562     22731     27565     22731     27568     22731
     27571     22731     27574     22731     27577     22731     27580     22731
     27583     22731     27586     22731     27589     22731     27592     22731
     27595     22731     27598     22731     27601     22731     27604     22731
     27607     22731     27610     22731     27613     22731     27616     22731
     27619     22731     27622     22731     27625     22731     27628     22731
     27631     22731     27634     22731     27637     22731     27640     22731
     27643     22731     27646     22731     27649     22731     27652     22731
     27655     22731     27658     22731     27661     22731     27664     22731
     27667     22731     27670     22731     27673     22731     27676     22731
     27679     22731     27682     22731     27685     22731     27688     22731
     27691     22731     27694     22731     27697     22731     27700     22731
     27703     22731     27706     22731     27709     22731     27712     22731
     27715     22731     27718     22731     27721     22731     27724     22731
     27727     22731     27730     22731     27733     22731     27736     22731
     27739     22731     27742     22731     27745     22731     27748     22731
     27751     22731     27754     22731     27757     22731     27760     22731
     27763     22731     27766     22731     27769     22731     27772     22731
     27775     22731     27778     22731     27781     22731     27784     22731
     27787     22731     27790     22731     27793     22731     27796     22731
     27799     22731     27802     22731     27805     22731     27808     22731
     27811     22731     27814     22731     27817     22731     27820     22731
     27823     22731     27826     22731     27829     22731     27832     22731
     27835     22731     27838     22731     27841     22731     27844     22731
     27847     22731     27850     22731     27853     22731     27856     22731
     27859     22731     27862     22731     27865     22731     27868     22731
     27871     22731     27874     22731     27877     22731     27880     22731
     27883     22731     27886     22731     27889     22731     27892     22731
     27895     22731     27898     22731     27901     22731     27904     22731
     27907     22731     27910     22731     27913     22731     27916     22731
     27919     22731     27922     22731     27925     22731     27928     22731
     27931     22731     27934     22731     27937     22731     27940     22731
     27943     22731     27946     22731     27949     22731     27952     22731
     27955     22731     27958     22731     27961     22731     27964     22731
     27967     22731     27970     22731     27973     22731     27976     22731
     27979     22731     27982     22731     27985     22731     27988     22731
     27991     22731     27994     22731     27997     22731     28000     22731
     28003     22731     28006     22731     28009     22731     28012     22731
     28015     22731     28018     22731     28021     22731     28024     22731
     28027     22731     28030     22731     28033     22731     28036     22731
     28039     22731     28042     22731     28045     22731     28048     22731
     28051     22731     28054     22731     28057     22731     28060     22731
     28063     22731     28066     22731     28069     22731     28072     22731

         0 !NNB

         0         0         0         0         0         0         0         0
         0         0         0         0         0         0         0         0
         0         0         0         0         0         0         0         0
         0         0         0         0         0         0         0         0
         0         0         0         0         0         0         0         0
         0         0         0         0         0         0         0         0
         0         0         0         0         0         0         0         0
         0         0         0         0         0         0         0         0
         0         0         0         0         0         0         0         0
         0         0         0         0         0         0         0         0
         0         0         0         0         0         0         0         0
         0         0         0         0         0         0         0         0
         0         0         0         0         0         0         0         0
         0         0         0         0         0         0         0         0
         0         0         0         0         0         0         0         0
         0         0         0         0         0         0         0         0
         0         0         0         0         0         0         0         0
         0         0         0         0         0         0         0         0
         0         0         0         0         0         0         0         0
         0         0         0         0         0         0         0         0
         0         0         0         0         0         0         0         0
         0         0         0         0         0         0         0         0
         0         0         0         0         0         0         0         0
         0         0         0         0         0         0         0         0
         0         0         0         0         0         0         0         0
         0         0         0         0         0         0         0         0
         0         0         0         0         0         0         0         0
         0         0         0         0         0         0         0         0
         0         0         0         0         0         0         0         0
         0         0         0         0         0         0         0         0
         0         0         0         0         0         0         0         0
         0         0         0         0         0         0         0         0
         0         0         0         0         0         0         0         0
         0         0         0         0         0         0         0         0
         0         0         0         0         0         0         0         0
         0         0         0         0         0         0         0         0
         0         0         0         0         0         0         0         0
         0         0         0         0         0         0         0         0
         0         0         0         0         0         0         0         0
         0         0         0         0         0         0         0         0
         0         0         0         0         0         0         0         0
         0         0         0         0         0         0         0         0
         0         0         0         0         0         0         0         0
         0         0         0         0         0         0         0         0
         0         0         0         0         0         0         0         0
         0         0         0         0         0         0         0         0
         0         0         0         0         0         0         0         0
         0         0         0         0         0         0         0         0
         0         0         0         0         0         0         0         0
         0         0         0         0         0         0         0         0
         0         0         0         0         0         0         0         0
         0         0         0         0         0         0         0         0
         0         0         0         0         0         0         0         0
         0         0         0         0         0         0         0         0
         0         0         0         0         0         0         0         0
         0         0         0         0         0         0         0         0
         0         0         0         0         0         0         0         0
         0         0         0         0         0         0         0         0
         0         0         0         0         0         0         0         0
         0         0         0         0         0         0         0         0
         0         0         0         0         0         0         0         0
         0         0         0         0         0         0         0         0
         0         0         0         0         0         0         0         0
         0         0         0         0         0         0         0         0
         0         0         0         0         0         0         0         0
         0         0         0         0         0         0         0         0
         0         0         0         0         0         0         0         0
         0         0         0         0         0         0         0         0
         0         0         0         0         0         0         0         0
         0         0         0         0         0         0         0         0
         0         0         0         0         0         0         0         0
         0         0         0         0         0         0         0         0
         0         0         0         0         0         0         0         0
         0         0         0         0         0         0         0         0
         0         0         0         0         0         0         0         0
         0         0         0         0         0         0         0         0
         0         0         0         0         0         0         0         0
         0         0         0         0         0         0         0         0
         0         0         0         0         0         0         0         0
         0         0         0         0         0         0         0         0
         0         0         0         0         0         0         0         0
         0         0         0         0         0         0         0         0
         0         0         0         0         0         0         0         0
         0         0         0         0         0         0         0         0
         0         0         0         0         0         0         0         0
         0         0         0         0         0         0         0         0
         0         0         0         0         0         0         0         0
         0         0         0         0         0         0         0         0
         0         0         0         0         0         0         0         0
         0         0         0         0         0         0         0         0
         0         0         0         0         0         0         0         0
         0         0         0         0         0         0         0         0
         0         0         0         0         0         0         0         0
         0         0         0         0         0         0         0         0
         0         0         0         0         0         0         0         0
         0         0         0         0         0         0         0         0
         0         0         0         0         0         0         0         0
         0         0         0         0         0         0         0         0
         0         0         0         0         0         0         0         0
         0         0         0         0         0         0         0         0
         0         0         0         0         0         0         0         0
         0         0         0         0         0         0         0         0
         0         0         0         0         0         0         0         0
         0         0         0         0         0         0         0         0
         0         0         0         0         0         0         0         0
         0         0         0         0         0         0         0         0
         0         0         0         0         0         0         0         0
         0         0         0         0         0         0         0         0
         0         0         0         0         0         0         0         0
         0         0         0         0         0         0         0         0
         0         0         0         0         0         0         0         0
         0         0         0         0         0         0         0         0
         0         0         0         0         0         0         0         0
         0         0         0         0         0         0         0         0
         0         0         0         0         0         0         0         0
         0         0         0         0         0         0         0         0
         0         0         0         0         0         0         0         0
         0         0         0         0         0         0         0         0
         0         0         0         0         0         0         0         0
         0         0         0         0         0         0         0         0
         0         0         0         0         0         0         0         0
         0         0         0         0         0         0         0         0
         0         0         0         0         0         0         0         0
         0         0         0         0         0         0         0         0
         0         0         0         0         0         0         0         0
         0         0         0         0         0         0         0         0
         0         0         0         0         0         0         0         0
         0         0         0         0         0         0         0         0
         0         0         0         0         0         0         0         0
         0         0         0         0         0         0         0         0
         0         0         0         0         0         0         0         0
         0         0         0         0         0         0         0         0
         0         0         0         0         0         0         0         0
         0         0         0         0         0         0         0         0
         0         0         0         0         0         0         0         0
         0         0         0         0         0         0         0         0
         0         0         0         0         0         0         0         0
         0         0         0         0         0         0         0         0
         0         0         0         0         0         0         0         0
         0         0         0         0         0         0         0         0
         0         0         0         0         0         0         0         0
         0         0         0         0         0         0         0         0
         0         0         0         0         0         0         0         0
         0         0         0         0         0         0         0         0
         0         0         0         0         0         0         0         0
         0         0         0         0         0         0         0         0
         0         0         0         0         0         0         0         0
         0         0         0         0         0         0         0         0
         0         0         0         0         0         0         0         0
         0         0         0         0         0         0         0         0
         0         0         0         0         0         0         0         0
         0         0         0         0         0         0         0         0
         0         0         0         0         0         0         0         0
         0         0         0         0         0         0         0         0
         0         0         0         0         0         0         0         0
         0         0         0         0         0         0         0         0
         0         0         0         0         0         0         0         0
         0         0         0         0         0         0         0         0
         0         0         0         0         0         0         0         0
         0         0         0         0         0         0         0         0
         0         0         0         0         0         0         0         0
         0         0         0         0         0         0         0         0
         0         0         0         0         0         0         0         0
         0         0         0         0         0         0         0         0
         0         0         0         0         0         0         0         0
         0         0         0         0         0         0         0         0
         0         0         0         0         0         0         0         0
         0         0         0         0         0         0         0         0
         0         0         0         0         0         0         0         0
         0         0         0         0         0         0         0         0
         0         0         0         0         0         0         0         0
         0         0         0         0         0         0         0         0
         0         0         0         0         0         0         0         0
         0         0         0         0         0         0         0         0
         0         0         0         0         0         0         0         0
         0         0         0         0         0         0         0         0
         0         0         0         0         0         0         0         0
         0         0         0         0         0         0         0         0
         0         0         0         0         0         0         0         0
         0         0         0         0         0         0         0         0
         0         0         0         0         0         0         0         0
         0         0         0         0         0         0         0         0
         0         0         0         0         0         0         0         0
         0         0         0         0         0         0         0         0
         0         0         0         0         0         0         0         0
         0         0         0         0         0         0         0         0
         0         0         0         0         0         0         0         0
         0         0         0         0         0         0         0         0
         0         0         0         0         0         0         0         0
         0         0         0         0         0         0         0         0
         0         0         0         0         0         0         0         0
         0         0         0         0         0         0         0         0
         0         0         0         0         0         0         0         0
         0         0         0         0         0         0         0         0
         0         0         0         0         0         0         0         0
         0         0         0         0         0         0         0         0
         0         0         0         0         0         0         0         0
         0         0         0         0         0         0         0         0
         0         0         0         0         0         0         0         0
         0         0         0         0         0         0         0         0
         0         0         0         0         0         0         0         0
         0         0         0         0         0         0         0         0
         0         0         0         0         0         0         0         0
         0         0         0         0         0         0         0         0
         0         0         0         0         0         0         0         0
         0         0         0         0         0         0         0         0
         0         0         0         0         0         0         0         0
         0         0         0         0         0         0         0         0
         0         0         0         0         0         0         0         0
         0         0         0         0         0         0         0         0
         0         0         0         0         0         0         0         0
         0         0         0         0         0         0         0         0
         0         0         0         0         0         0         0         0
         0         0         0         0         0         0         0         0
         0         0         0         0         0         0         0         0
         0         0         0         0         0         0         0         0
         0         0         0         0         0         0         0         0
         0         0         0         0         0         0         0         0
         0         0         0         0         0         0         0         0
         0         0         0         0         0         0         0         0
         0         0         0         0         0         0         0         0
         0         0         0         0         0         0         0         0
         0         0         0         0         0         0         0         0
         0         0         0         0         0         0         0         0
         0         0         0         0         0         0         0         0
         0         0         0         0         0         0         0         0
         0         0         0         0         0         0         0         0
         0         0         0         0         0         0         0         0
         0         0         0         0         0         0         0         0
         0         0         0         0         0         0         0         0
         0         0         0         0         0         0         0         0
         0         0         0         0         0         0         0         0
         0         0         0         0         0         0         0         0
         0         0         0         0         0         0         0         0
         0         0         0         0         0         0         0         0
         0         0         0         0         0         0         0         0
         0         0         0         0         0         0         0         0
         0         0         0         0         0         0         0         0
         0         0         0         0         0         0         0         0
         0         0         0         0         0         0         0         0
         0         0         0         0         0         0         0         0
         0         0         0         0         0         0         0         0
         0         0         0         0         0         0         0         0
         0         0         0         0         0         0         0         0
         0         0         0         0         0         0         0         0
         0         0         0         0         0         0         0         0
         0         0         0         0         0         0         0         0
         0         0         0         0         0         0         0         0
         0         0         0         0         0         0         0         0
         0         0         0         0         0         0         0         0
         0         0         0         0         0         0         0         0
         0         0         0         0         0         0         0         0
         0         0         0         0         0         0         0         0
         0         0         0         0         0         0         0         0
         0         0         0         0         0         0         0         0
         0         0         0         0         0         0         0         0
         0         0         0         0         0         0         0         0
         0         0         0         0         0         0         0         0
         0         0         0         0         0         0         0         0
         0         0         0         0         0         0         0         0
         0         0         0         0         0         0         0         0
         0         0         0         0         0         0         0         0
         0         0         0         0         0         0         0         0
         0         0         0         0         0         0         0         0
         0         0         0         0         0         0         0         0
         0         0         0         0         0         0         0         0
         0         0         0         0         0         0         0         0
         0         0         0         0         0         0         0         0
         0         0         0         0         0         0         0         0
         0         0         0         0         0         0         0         0
         0         0         0         0         0         0         0         0
         0         0         0         0         0         0         0         0
         0         0         0         0         0         0         0         0
         0         0         0         0         0         0         0         0
         0         0         0         0         0         0         0         0
         0         0         0         0         0         0         0         0
         0         0         0         0         0         0         0         0
         0         0         0         0         0         0         0         0
         0         0         0         0         0         0         0         0
         0         0         0         0         0         0         0         0
         0         0         0         0         0         0         0         0
         0         0         0         0         0         0         0         0
         0         0         0         0         0         0         0         0
         0         0         0         0         0         0         0         0
         0         0         0         0         0         0         0         0
         0         0         0         0         0         0         0         0
         0         0         0         0         0         0         0         0
         0         0         0         0         0         0         0         0
         0         0         0         0         0         0         0         0
         0         0         0         0         0         0         0         0
         0         0         0         0         0         0         0         0
         0         0         0         0         0         0         0         0
         0         0         0         0         0         0         0         0
         0         0         0         0         0         0         0         0
         0         0         0         0         0         0         0         0
         0         0         0         0         0         0         0         0
         0         0         0         0         0         0         0         0
         0         0         0         0         0         0         0         0
         0         0         0         0         0         0         0         0
         0         0         0         0         0         0         0         0
         0         0         0         0         0         0         0         0
         0         0         0         0         0         0         0         0
         0         0         0         0         0         0         0         0
         0         0         0         0         0         0         0         0
         0         0         0         0         0         0         0         0
         0         0         0         0         0         0         0         0
         0         0         0         0         0         0         0         0
         0         0         0         0         0         0         0         0
         0         0         0         0         0         0         0         0
         0         0         0         0         0         0         0         0
         0         0         0         0         0         0         0         0
         0         0         0         0         0         0         0         0
         0         0         0         0         0         0         0         0
         0         0         0         0         0         0         0         0
         0         0         0         0         0         0         0         0
         0         0         0         0         0         0         0         0
         0         0         0         0         0         0         0         0
         0         0         0         0         0         0         0         0
         0         0         0         0         0         0         0         0
         0         0         0         0         0         0         0         0
         0         0         0         0         0         0         0         0
         0         0         0         0         0         0         0         0
         0         0         0         0         0         0         0         0
         0         0         0         0         0         0         0         0
         0         0         0         0         0         0         0         0
         0         0         0         0         0         0         0         0
         0         0         0         0         0         0         0         0
         0         0         0         0         0         0         0         0
         0         0         0         0         0         0         0         0
         0         0         0         0         0         0         0         0
         0         0         0         0         0         0         0         0
         0         0         0         0         0         0         0         0
         0         0         0         0         0         0         0         0
         0         0         0         0         0         0         0         0
         0         0         0         0         0         0         0         0
         0         0         0         0         0         0         0         0
         0         0         0         0         0         0         0         0
         0         0         0         0         0         0         0         0
         0         0         0         0         0         0         0         0
         0         0         0         0         0         0         0         0
         0         0         0         0         0         0         0         0
         0         0         0         0         0         0         0         0
         0         0         0         0         0         0         0         0
         0         0         0         0         0         0         0         0
         0         0         0         0         0         0         0         0
         0         0         0         0         0         0         0         0
         0         0         0         0         0         0         0         0
         0         0         0         0         0         0         0         0
         0         0         0         0         0         0         0         0
         0         0         0         0         0         0         0         0
         0         0         0         0         0         0         0         0
         0         0         0         0         0         0         0         0
         0         0         0         0         0         0         0         0
         0         0         0         0         0         0         0         0
         0         0         0         0         0         0         0         0
         0         0         0         0         0         0         0         0
         0         0         0         0         0         0         0         0
         0         0         0         0         0         0         0         0
         0         0         0         0         0         0         0         0
         0         0         0         0         0         0         0         0
         0         0         0         0         0         0         0         0
         0         0         0         0         0         0         0         0
         0         0         0         0         0         0         0         0
         0         0         0         0         0         0         0         0
         0         0         0         0         0         0         0         0
         0         0         0         0         0         0         0         0
         0         0         0         0         0         0         0         0
         0         0         0         0         0         0         0         0
         0         0         0         0         0         0         0         0
         0         0         0         0         0         0         0         0
         0         0         0         0         0         0         0         0
         0         0         0         0         0         0         0         0
         0         0         0         0         0         0         0         0
         0         0         0         0         0         0         0         0
         0         0         0         0         0         0         0         0
         0         0         0         0         0         0         0         0
         0         0         0         0         0         0         0         0
         0         0         0         0         0         0         0         0
         0         0         0         0         0         0         0         0
         0         0         0         0         0         0         0         0
         0         0         0         0         0         0         0         0
         0         0         0         0         0         0         0         0
         0         0         0         0         0         0         0         0
         0         0         0         0         0         0         0         0
         0         0         0         0         0         0         0         0
         0         0         0         0         0         0         0         0
         0         0         0         0         0         0         0         0
         0         0         0         0         0         0         0         0
         0         0         0         0         0         0         0         0
         0         0         0         0         0         0         0         0
         0         0         0         0         0         0         0         0
         0         0         0         0         0         0         0         0
         0         0         0         0         0         0         0         0
         0         0         0         0         0         0         0         0
         0         0         0         0         0         0         0         0
         0         0         0         0         0         0         0         0
         0         0         0         0         0         0         0         0
         0         0         0         0         0         0         0         0
         0         0         0         0         0         0         0         0
         0         0         0         0         0         0         0         0
         0         0         0         0         0         0         0         0
         0         0         0         0         0         0         0         0
         0         0         0         0         0         0         0         0
         0         0         0         0         0         0         0         0
         0         0         0         0         0         0         0         0
         0         0         0         0         0         0         0         0
         0         0         0         0         0         0         0         0
         0         0         0         0         0         0         0         0
         0         0         0         0         0         0         0         0
         0         0         0         0         0         0         0         0
         0         0         0         0         0         0         0         0
         0         0         0         0         0         0         0         0
         0         0         0         0         0         0         0         0
         0         0         0         0         0         0         0         0
         0         0         0         0         0         0         0         0
         0         0         0         0         0         0         0         0
         0         0         0         0         0         0         0         0
         0         0         0         0         0         0         0         0
         0         0         0         0         0         0         0         0
         0         0         0         0         0         0         0         0
         0         0         0         0         0         0         0         0
         0         0         0         0         0         0         0         0
         0         0         0         0         0         0         0         0
         0         0         0         0         0         0         0         0
         0         0         0         0         0         0         0         0
         0         0         0         0         0         0         0         0
         0         0         0         0         0         0         0         0
         0         0         0         0         0         0         0         0
         0         0         0         0         0         0         0         0
         0         0         0         0         0         0         0         0
         0         0         0         0         0         0         0         0
         0         0         0         0         0         0         0         0
         0         0         0         0         0         0         0         0
         0         0         0         0         0         0         0         0
         0         0         0         0         0         0         0         0
         0         0         0         0         0         0         0         0
         0         0         0         0         0         0         0         0
         0         0         0         0         0         0         0         0
         0         0         0         0         0         0         0         0
         0         0         0         0         0         0         0         0
         0         0         0         0         0         0         0         0
         0         0         0         0         0         0         0         0
         0         0         0         0         0         0         0         0
         0         0         0         0         0         0         0         0
         0         0         0         0         0         0         0         0
         0         0         0         0         0         0         0         0
         0         0         0         0         0         0         0         0
         0         0         0         0         0         0         0         0
         0         0         0         0         0         0         0         0
         0         0         0         0         0         0         0         0
         0         0         0         0         0         0         0         0
         0         0         0         0         0         0         0         0
         0         0         0         0         0         0         0         0
         0         0         0         0         0         0         0         0
         0         0         0         0         0         0         0         0
         0         0         0         0         0         0         0         0
         0         0         0         0         0         0         0         0
         0         0         0         0         0         0         0         0
         0         0         0         0         0         0         0         0
         0         0         0         0         0         0         0         0
         0         0         0         0         0         0         0         0
         0         0         0         0         0         0         0         0
         0         0         0         0         0         0         0         0
         0         0         0         0         0         0         0         0
         0         0         0         0         0         0         0         0
         0         0         0         0         0         0         0         0
         0         0         0         0         0         0         0         0
         0         0         0         0         0         0         0         0
         0         0         0         0         0         0         0         0
         0         0         0         0         0         0         0         0
         0         0         0         0         0         0         0         0
         0         0         0         0         0         0         0         0
         0         0         0         0         0         0         0         0
         0         0         0         0         0         0         0         0
         0         0         0         0         0         0         0         0
         0         0         0         0         0         0         0         0
         0         0         0         0         0         0         0         0
         0         0         0         0         0         0         0         0
         0         0         0         0         0         0         0         0
         0         0         0         0         0         0         0         0
         0         0         0         0         0         0         0         0
         0         0         0         0         0         0         0         0
         0         0         0         0         0         0         0         0
         0         0         0         0         0         0         0         0
         0         0         0         0         0         0         0         0
         0         0         0         0         0         0         0         0
         0         0         0         0         0         0         0         0
         0         0         0         0         0         0         0         0
         0         0         0         0         0         0         0         0
         0         0         0         0         0         0         0         0
         0         0         0         0         0         0         0         0
         0         0         0         0         0         0         0         0
         0         0         0         0         0         0         0         0
         0         0         0         0         0         0         0         0
         0         0         0         0         0         0         0         0
         0         0         0         0         0         0         0         0
         0         0         0         0         0         0         0         0
         0         0         0         0         0         0         0         0
         0         0         0         0         0         0         0         0
         0         0         0         0         0         0         0         0
         0         0         0         0         0         0         0         0
         0         0         0         0         0         0         0         0
         0         0         0         0         0         0         0         0
         0         0         0         0         0         0         0         0
         0         0         0         0         0         0         0         0
         0         0         0         0         0         0         0         0
         0         0         0         0         0         0         0         0
         0         0         0         0         0         0         0         0
         0         0         0         0         0         0         0         0
         0         0         0         0         0         0         0         0
         0         0         0         0         0         0         0         0
         0         0         0         0         0         0         0         0
         0         0         0         0         0         0         0         0
         0         0         0         0         0         0         0         0
         0         0         0         0         0         0         0         0
         0         0         0         0         0         0         0         0
         0         0         0         0         0         0         0         0
         0         0         0         0         0         0         0         0
         0         0         0         0         0         0         0         0
         0         0         0         0         0         0         0         0
         0         0         0         0         0         0         0         0
         0         0         0         0         0         0         0         0
         0         0         0         0         0         0         0         0
         0         0         0         0         0         0         0         0
         0         0         0         0         0         0         0         0
         0         0         0         0         0         0         0         0
         0         0         0         0         0         0         0         0
         0         0         0         0         0         0         0         0
         0         0         0         0         0         0         0         0
         0         0         0         0         0         0         0         0
         0         0         0         0         0         0         0         0
         0         0         0         0         0         0         0         0
         0         0         0         0         0         0         0         0
         0         0         0         0         0         0         0         0
         0         0         0         0         0         0         0         0
         0         0         0         0         0         0         0         0
         0         0         0         0         0         0         0         0
         0         0         0         0         0         0         0         0
         0         0         0         0         0         0         0         0
         0         0         0         0         0         0         0         0
         0         0         0         0         0         0         0         0
         0         0         0         0         0         0         0         0
         0         0         0         0         0         0         0         0
         0         0         0         0         0         0         0         0
         0         0         0         0         0         0         0         0
         0         0         0         0         0         0         0         0
         0         0         0         0         0         0         0         0
         0         0         0         0         0         0         0         0
         0         0         0         0         0         0         0         0
         0         0         0         0         0         0         0         0
         0         0         0         0         0         0         0         0
         0         0         0         0         0         0         0         0
         0         0         0         0         0         0         0         0
         0         0         0         0         0         0         0         0
         0         0         0         0         0         0         0         0
         0         0         0         0         0         0         0         0
         0         0         0         0         0         0         0         0
         0         0         0         0         0         0         0         0
         0         0         0         0         0         0         0         0
         0         0         0         0         0         0         0         0
         0         0         0         0         0         0         0         0
         0         0         0         0         0         0         0         0
         0         0         0         0         0         0         0         0
         0         0         0         0         0         0         0         0
         0         0         0         0         0         0         0         0
         0         0         0         0         0         0         0         0
         0         0         0         0         0         0         0         0
         0         0         0         0         0         0         0         0
         0         0         0         0         0         0         0         0
         0         0         0         0         0         0         0         0
         0         0         0         0         0         0         0         0
         0         0         0         0         0         0         0         0
         0         0         0         0         0         0         0         0
         0         0         0         0         0         0         0         0
         0         0         0         0         0         0         0         0
         0         0         0         0         0         0         0         0
         0         0         0         0         0         0         0         0
         0         0         0         0         0         0         0         0
         0         0         0         0         0         0         0         0
         0         0         0         0         0         0         0         0
         0         0         0         0         0         0         0         0
         0         0         0         0         0         0         0         0
         0         0         0         0         0         0         0         0
         0         0         0         0         0         0         0         0
         0         0         0         0         0         0         0         0
         0         0         0         0         0         0         0         0
         0         0         0         0         0         0         0         0
         0         0         0         0         0         0         0         0
         0         0         0         0         0         0         0         0
         0         0         0         0         0         0         0         0
         0         0         0         0         0         0         0         0
         0         0         0         0         0         0         0         0
         0         0         0         0         0         0         0         0
         0         0         0         0         0         0         0         0
         0         0         0         0         0         0         0         0
         0         0         0         0         0         0         0         0
         0         0         0         0         0         0         0         0
         0         0         0         0         0         0         0         0
         0         0         0         0         0         0         0         0
         0         0         0         0         0         0         0         0
         0         0         0         0         0         0         0         0
         0         0         0         0         0         0         0         0
         0         0         0         0         0         0         0         0
         0         0         0         0         0         0         0         0
         0         0         0         0         0         0         0         0
         0         0         0         0         0         0         0         0
         0         0         0         0         0         0         0         0
         0         0         0         0         0         0         0         0
         0         0         0         0         0         0         0         0
         0         0         0         0         0         0         0         0
         0         0         0         0         0         0         0         0
         0         0         0         0         0         0         0         0
         0         0         0         0         0         0         0         0
         0         0         0         0         0         0         0         0
         0         0         0         0         0         0         0         0
         0         0         0         0         0         0         0         0
         0         0         0         0         0         0         0         0
         0         0         0         0         0         0         0         0
         0         0         0         0         0         0         0         0
         0         0         0         0         0         0         0         0
         0         0         0         0         0         0         0         0
         0         0         0         0         0         0         0         0
         0         0         0         0         0         0         0         0
         0         0         0         0         0         0         0         0
         0         0         0         0         0         0         0         0
         0         0         0         0         0         0         0         0
         0         0         0         0         0         0         0         0
         0         0         0         0         0         0         0         0
         0         0         0         0         0         0         0         0
         0         0         0         0         0         0         0         0
         0         0         0         0         0         0         0         0
         0         0         0         0         0         0         0         0
         0         0         0         0         0         0         0         0
         0         0         0         0         0         0         0         0
         0         0         0         0         0         0         0         0
         0         0         0         0         0         0         0         0
         0         0         0         0         0         0         0         0
         0         0         0         0         0         0         0         0
         0         0         0         0         0         0         0         0
         0         0         0         0         0         0         0         0
         0         0         0         0         0         0         0         0
         0         0         0         0         0         0         0         0
         0         0         0         0         0         0         0         0
         0         0         0         0         0         0         0         0
         0         0         0         0         0         0         0         0
         0         0         0         0         0         0         0         0
         0         0         0         0         0         0         0         0
         0         0         0         0         0         0         0         0
         0         0         0         0         0         0         0         0
         0         0         0         0         0         0         0         0
         0         0         0         0         0         0         0         0
         0         0         0         0         0         0         0         0
         0         0         0         0         0         0         0         0
         0         0         0         0         0         0         0         0
         0         0         0         0         0         0         0         0
         0         0         0         0         0         0         0         0
         0         0         0         0         0         0         0         0
         0         0         0         0         0         0         0         0
         0         0         0         0         0         0         0         0
         0         0         0         0         0         0         0         0
         0         0         0         0         0         0         0         0
         0         0         0         0         0         0         0         0
         0         0         0         0         0         0         0         0
         0         0         0         0         0         0         0         0
         0         0         0         0         0         0         0         0
         0         0         0         0         0         0         0         0
         0         0         0         0         0         0         0         0
         0         0         0         0         0         0         0         0
         0         0         0         0         0         0         0         0
         0         0         0         0         0         0         0         0
         0         0         0         0         0         0         0         0
         0         0         0         0         0         0         0         0
         0         0         0         0         0         0         0         0
         0         0         0         0         0         0         0         0
         0         0         0         0         0         0         0         0
         0         0         0         0         0         0         0         0
         0         0         0         0         0         0         0         0
         0         0         0         0         0         0         0         0
         0         0         0         0         0         0         0         0
         0         0         0         0         0         0         0         0
         0         0         0         0         0         0         0         0
         0         0         0         0         0         0         0         0
         0         0         0         0         0         0         0         0
         0         0         0         0         0         0         0         0
         0         0         0         0         0         0         0         0
         0         0         0         0         0         0         0         0
         0         0         0         0         0         0         0         0
         0         0         0         0         0         0         0         0
         0         0         0         0         0         0         0         0
         0         0         0         0         0         0         0         0
         0         0         0         0         0         0         0         0
         0         0         0         0         0         0         0         0
         0         0         0         0         0         0         0         0
         0         0         0         0         0         0         0         0
         0         0         0         0         0         0         0         0
         0         0         0         0         0         0         0         0
         0         0         0         0         0         0         0         0
         0         0         0         0         0         0         0         0
         0         0         0         0         0         0         0         0
         0         0         0         0         0         0         0         0
         0         0         0         0         0         0         0         0
         0         0         0         0         0         0         0         0
         0         0         0         0         0         0         0         0
         0         0         0         0         0         0         0         0
         0         0         0         0         0         0         0         0
         0         0         0         0         0         0         0         0
         0         0         0         0         0         0         0         0
         0         0         0         0         0         0         0         0
         0         0         0         0         0         0         0         0
         0         0         0         0         0         0         0         0
         0         0         0         0         0         0         0         0
         0         0         0         0         0         0         0         0
         0         0         0         0         0         0         0         0
         0         0         0         0         0         0         0         0
         0         0         0         0         0         0         0         0
         0         0         0         0         0         0         0         0
         0         0         0         0         0         0         0         0
         0         0         0         0         0         0         0         0
         0         0         0         0         0         0         0         0
         0         0         0         0         0         0         0         0
         0         0         0         0         0         0         0         0
         0         0         0         0         0         0         0         0
         0         0         0         0         0         0         0         0
         0         0         0         0         0         0         0         0
         0         0         0         0         0         0         0         0
         0         0         0         0         0         0         0         0
         0         0         0         0         0         0         0         0
         0         0         0         0         0         0         0         0
         0         0         0         0         0         0         0         0
         0         0         0         0         0         0         0         0
         0         0         0         0         0         0         0         0
         0         0         0         0         0         0         0         0
         0         0         0         0         0         0         0         0
         0         0         0         0         0         0         0         0
         0         0         0         0         0         0         0         0
         0         0         0         0         0         0         0         0
         0         0         0         0         0         0         0         0
         0         0         0         0         0         0         0         0
         0         0         0         0         0         0         0         0
         0         0         0         0         0         0         0         0
         0         0         0         0         0         0         0         0
         0         0         0         0         0         0         0         0
         0         0         0         0         0         0         0         0
         0         0         0         0         0         0         0         0
         0         0         0         0         0         0         0         0
         0         0         0         0         0         0         0         0
         0         0         0         0         0         0         0         0
         0         0         0         0         0         0         0         0
         0         0         0         0         0         0         0         0
         0         0         0         0         0         0         0         0
         0         0         0         0         0         0         0         0
         0         0         0         0         0         0         0         0
         0         0         0         0         0         0         0         0
         0         0         0         0         0         0         0         0
         0         0         0         0         0         0         0         0
         0         0         0         0         0         0         0         0
         0         0         0         0         0         0         0         0
         0         0         0         0         0         0         0         0
         0         0         0         0         0         0         0         0
         0         0         0         0         0         0         0         0
         0         0         0         0         0         0         0         0
         0         0         0         0         0         0         0         0
         0         0         0         0         0         0         0         0
         0         0         0         0         0         0         0         0
         0         0         0         0         0         0         0         0
         0         0         0         0         0         0         0         0
         0         0         0         0         0         0         0         0
         0         0         0         0         0         0         0         0
         0         0         0         0         0         0         0         0
         0         0         0         0         0         0         0         0
         0         0         0         0         0         0         0         0
         0         0         0         0         0         0         0         0
         0         0         0         0         0         0         0         0
         0         0         0         0         0         0         0         0
         0         0         0         0         0         0         0         0
         0         0         0         0         0         0         0         0
         0         0         0         0         0         0         0         0
         0         0         0         0         0         0         0         0
         0         0         0         0         0         0         0         0
         0         0         0         0         0         0         0         0
         0         0         0         0         0         0         0         0
         0         0         0         0         0         0         0         0
         0         0         0         0         0         0         0         0
         0         0         0         0         0         0         0         0
         0         0         0         0         0         0         0         0
         0         0         0         0         0         0         0         0
         0         0         0         0         0         0         0         0
         0         0         0         0         0         0         0         0
         0         0         0         0         0         0         0         0
         0         0         0         0         0         0         0         0
         0         0         0         0         0         0         0         0
         0         0         0         0         0         0         0         0
         0         0         0         0         0         0         0         0
         0         0         0         0         0         0         0         0
         0         0         0         0         0         0         0         0
         0         0         0         0         0         0         0         0
         0         0         0         0         0         0         0         0
         0         0         0         0         0         0         0         0
         0         0         0         0         0         0         0         0
         0         0         0         0         0         0         0         0
         0         0         0         0         0         0         0         0
         0         0         0         0         0         0         0         0
         0         0         0         0         0         0         0         0
         0         0         0         0         0         0         0         0
         0         0         0         0         0         0         0         0
         0         0         0         0         0         0         0         0
         0         0         0         0         0         0         0         0
         0         0         0         0         0         0         0         0
         0         0         0         0         0         0         0         0
         0         0         0         0         0         0         0         0
         0         0         0         0         0         0         0         0
         0         0         0         0         0         0         0         0
         0         0         0         0         0         0         0         0
         0         0         0         0         0         0         0         0
         0         0         0         0         0         0         0         0
         0         0         0         0         0         0         0         0
         0         0         0         0         0         0         0         0
         0         0         0         0         0         0         0         0
         0         0         0         0         0         0         0         0
         0         0         0         0         0         0         0         0
         0         0         0         0         0         0         0         0
         0         0         0         0         0         0         0         0
         0         0         0         0         0         0         0         0
         0         0         0         0         0         0         0         0
         0         0         0         0         0         0         0         0
         0         0         0         0         0         0         0         0
         0         0         0         0         0         0         0         0
         0         0         0         0         0         0         0         0
         0         0         0         0         0         0         0         0
         0         0         0         0         0         0         0         0
         0         0         0         0         0         0         0         0
         0         0         0         0         0         0         0         0
         0         0         0         0         0         0         0         0
         0         0         0         0         0         0         0         0
         0         0         0         0         0         0         0         0
         0         0         0         0         0         0         0         0
         0         0         0         0         0         0         0         0
         0         0         0         0         0         0         0         0
         0         0         0         0         0         0         0         0
         0         0         0         0         0         0         0         0
         0         0         0         0         0         0         0         0
         0         0         0         0         0         0         0         0
         0         0         0         0         0         0         0         0
         0         0         0         0         0         0         0         0
         0         0         0         0         0         0         0         0
         0         0         0         0         0         0         0         0
         0         0         0         0         0         0         0         0
         0         0         0         0         0         0         0         0
         0         0         0         0         0         0         0         0
         0         0         0         0         0         0         0         0
         0         0         0         0         0         0         0         0
         0         0         0         0         0         0         0         0
         0         0         0         0         0         0         0         0
         0         0         0         0         0         0         0         0
         0         0         0         0         0         0         0         0
         0         0         0         0         0         0         0         0
         0         0         0         0         0         0         0         0
         0         0         0         0         0         0         0         0
         0         0         0         0         0         0         0         0
         0         0         0         0         0         0         0         0
         0         0         0         0         0         0         0         0
         0         0         0         0         0         0         0         0
         0         0         0         0         0         0         0         0
         0         0         0         0         0         0         0         0
         0         0         0         0         0         0         0         0
         0         0         0         0         0         0         0         0
         0         0         0         0         0         0         0         0
         0         0         0         0         0         0         0         0
         0         0         0         0         0         0         0         0
         0         0         0         0         0         0         0         0
         0         0         0         0         0         0         0         0
         0         0         0         0         0         0         0         0
         0         0         0         0         0         0         0         0
         0         0         0         0         0         0         0         0
         0         0         0         0         0         0         0         0
         0         0         0         0         0         0         0         0
         0         0         0         0         0         0         0         0
         0         0         0         0         0         0         0         0
         0         0         0         0         0         0         0         0
         0         0         0         0         0         0         0         0
         0         0         0         0         0         0         0         0
         0         0         0         0         0         0         0         0
         0         0         0         0         0         0         0         0
         0         0         0         0         0         0         0         0
         0         0         0         0         0         0         0         0
         0         0         0         0         0         0         0         0
         0         0         0         0         0         0         0         0
         0         0         0         0         0         0         0         0
         0         0         0         0         0         0         0         0
         0         0         0         0         0         0         0         0
         0         0         0         0         0         0         0         0
         0         0         0         0         0         0         0         0
         0         0         0         0         0         0         0         0
         0         0         0         0         0         0         0         0
         0         0         0         0         0         0         0         0
         0         0         0         0         0         0         0         0
         0         0         0         0         0         0         0         0
         0         0         0         0         0         0         0         0
         0         0         0         0         0         0         0         0
         0         0         0         0         0         0         0         0
         0         0         0         0         0         0         0         0
         0         0         0         0         0         0         0         0
         0         0         0         0         0         0         0         0
         0         0         0         0         0         0         0         0
         0         0         0         0         0         0         0         0
         0         0         0         0         0         0         0         0
         0         0         0         0         0         0         0         0
         0         0         0         0         0         0         0         0
         0         0         0         0         0         0         0         0
         0         0         0         0         0         0         0         0
         0         0         0         0         0         0         0         0
         0         0         0         0         0         0         0         0
         0         0         0         0         0         0         0         0
         0         0         0         0         0         0         0         0
         0         0         0         0         0         0         0         0
         0         0         0         0         0         0         0         0
         0         0         0         0         0         0         0         0
         0         0         0         0         0         0         0         0
         0         0         0         0         0         0         0         0
         0         0         0         0         0         0         0         0
         0         0         0         0         0         0         0         0
         0         0         0         0         0         0         0         0
         0         0         0         0         0         0         0         0
         0         0         0         0         0         0         0         0
         0         0         0         0         0         0         0         0
         0         0         0         0         0         0         0         0
         0         0         0         0         0         0         0         0
         0         0         0         0         0         0         0         0
         0         0         0         0         0         0         0         0
         0         0         0         0         0         0         0         0
         0         0         0         0         0         0         0         0
         0         0         0         0         0         0         0         0
         0         0         0         0         0         0         0         0
         0         0         0         0         0         0         0         0
         0         0         0         0         0         0         0         0
         0         0         0         0         0         0         0         0
         0         0         0         0         0         0         0         0
         0         0         0         0         0         0         0         0
         0         0         0         0         0         0         0         0
         0         0         0         0         0         0         0         0
         0         0         0         0         0         0         0         0
         0         0         0         0         0         0         0         0
         0         0         0         0         0         0         0         0
         0         0         0         0         0         0         0         0
         0         0         0         0         0         0         0         0
         0         0         0         0         0         0         0         0
         0         0         0         0         0         0         0         0
         0         0         0         0         0         0         0         0
         0         0         0         0         0         0         0         0
         0         0         0         0         0         0         0         0
         0         0         0         0         0         0         0         0
         0         0         0         0         0         0         0         0
         0         0         0         0         0         0         0         0
         0         0         0         0         0         0         0         0
         0         0         0         0         0         0         0         0
         0         0         0         0         0         0         0         0
         0         0         0         0         0         0         0         0
         0         0         0         0         0         0         0         0
         0         0         0         0         0         0         0         0
         0         0         0         0         0         0         0         0
         0         0         0         0         0         0         0         0
         0         0         0         0         0         0         0         0
         0         0         0         0         0         0         0         0
         0         0         0         0         0         0         0         0
         0         0         0         0         0         0         0         0
         0         0         0         0         0         0         0         0
         0         0         0         0         0         0         0         0
         0         0         0         0         0         0         0         0
         0         0         0         0         0         0         0         0
         0         0         0         0         0         0         0         0
         0         0         0         0         0         0         0         0
         0         0         0         0         0         0         0         0
         0         0         0         0         0         0         0         0
         0         0         0         0         0         0         0         0
         0         0         0         0         0         0         0         0
         0         0         0         0         0         0         0         0
         0         0         0         0         0         0         0         0
         0         0         0         0         0         0         0         0
         0         0         0         0         0         0         0         0
         0         0         0         0         0         0         0         0
         0         0         0         0         0         0         0         0
         0         0         0         0         0         0         0         0
         0         0         0         0         0         0         0         0
         0         0         0         0         0         0         0         0
         0         0         0         0         0         0         0         0
         0         0         0         0         0         0         0         0
         0         0         0         0         0         0         0         0
         0         0         0         0         0         0         0         0
         0         0         0         0         0         0         0         0
         0         0         0         0         0         0         0         0
         0         0         0         0         0         0         0         0
         0         0         0         0         0         0         0         0
         0         0         0         0         0         0         0         0
         0         0         0         0         0         0         0         0
         0         0         0         0         0         0         0         0
         0         0         0         0         0         0         0         0
         0         0         0         0         0         0         0         0
         0         0         0         0         0         0         0         0
         0         0         0         0         0         0         0         0
         0         0         0         0         0         0         0         0
         0         0         0         0         0         0         0         0
         0         0         0         0         0         0         0         0
         0         0         0         0         0         0         0         0
         0         0         0         0         0         0         0         0
         0         0         0         0         0         0         0         0
         0         0         0         0         0         0         0         0
         0         0         0         0         0         0         0         0
         0         0         0         0         0         0         0         0
         0         0         0         0         0         0         0         0
         0         0         0         0         0         0         0         0
         0         0         0         0         0         0         0         0
         0         0         0         0         0         0         0         0
         0         0         0         0         0         0         0         0
         0         0         0         0         0         0         0         0
         0         0         0         0         0         0         0         0
         0         0         0         0         0         0         0         0
         0         0         0         0         0         0         0         0
         0         0         0         0         0         0         0         0
         0         0         0         0         0         0         0         0
         0         0         0         0         0         0         0         0
         0         0         0         0         0         0         0         0
         0         0         0         0         0         0         0         0
         0         0         0         0         0         0         0         0
         0         0         0         0         0         0         0         0
         0         0         0         0         0         0         0         0
         0         0         0         0         0         0         0         0
         0         0         0         0         0         0         0         0
         0         0         0         0         0         0         0         0
         0         0         0         0         0         0         0         0
         0         0         0         0         0         0         0         0
         0         0         0         0         0         0         0         0
         0         0         0         0         0         0         0         0
         0         0         0         0         0         0         0         0
         0         0         0         0         0         0         0         0
         0         0         0         0         0         0         0         0
         0         0         0         0         0         0         0         0
         0         0         0         0         0         0         0         0
         0         0         0         0         0         0         0         0
         0         0         0         0         0         0         0         0
         0         0         0         0         0         0         0         0
         0         0         0         0         0         0         0         0
         0         0         0         0         0         0         0         0
         0         0         0         0         0         0         0         0
         0         0         0         0         0         0         0         0
         0         0         0         0         0         0         0         0
         0         0         0         0         0         0         0         0
         0         0         0         0         0         0         0         0
         0         0         0         0         0         0         0         0
         0         0         0         0         0         0         0         0
         0         0         0         0         0         0         0         0
         0         0         0         0         0         0         0         0
         0         0         0         0         0         0         0         0
         0         0         0         0         0         0         0         0
         0         0         0         0         0         0         0         0
         0         0         0         0         0         0         0         0
         0         0         0         0         0         0         0         0
         0         0         0         0         0         0         0         0
         0         0         0         0         0         0         0         0
         0         0         0         0         0         0         0         0
         0         0         0         0         0         0         0         0
         0         0         0         0         0         0         0         0
         0         0         0         0         0         0         0         0
         0         0         0         0         0         0         0         0
         0         0         0         0         0         0         0         0
         0         0         0         0         0         0         0         0
         0         0         0         0         0         0         0         0
         0         0         0         0         0         0         0         0
         0         0         0         0         0         0         0         0
         0         0         0         0         0         0         0         0
         0         0         0         0         0         0         0         0
         0         0         0         0         0         0         0         0
         0         0         0         0         0         0         0         0
         0         0         0         0         0         0         0         0
         0         0         0         0         0         0         0         0
         0         0         0         0         0         0         0         0
         0         0         0         0         0         0         0         0
         0         0         0         0         0         0         0         0
         0         0         0         0         0         0         0         0
         0         0         0         0         0         0         0         0
         0         0         0         0         0         0         0         0
         0         0         0         0         0         0         0         0
         0         0         0         0         0         0         0         0
         0         0         0         0         0         0         0         0
         0         0         0         0         0         0         0         0
         0         0         0         0         0         0         0         0
         0         0         0         0         0         0         0         0
         0         0         0         0         0         0         0         0
         0         0         0         0         0         0         0         0
         0         0         0         0         0         0         0         0
         0         0         0         0         0         0         0         0
         0         0         0         0         0         0         0         0
         0         0         0         0         0         0         0         0
         0         0         0         0         0         0         0         0
         0         0         0         0         0         0         0         0
         0         0         0         0         0         0         0         0
         0         0         0         0         0         0         0         0
         0         0         0         0         0         0         0         0
         0         0         0         0         0         0         0         0
         0         0         0         0         0         0         0         0
         0         0         0         0         0         0         0         0
         0         0         0         0         0         0         0         0
         0         0         0         0         0         0         0         0
         0         0         0         0         0         0         0         0
         0         0         0         0         0         0         0         0
         0         0         0         0         0         0         0         0
         0         0         0         0         0         0         0         0
         0         0         0         0         0         0         0         0
         0         0         0         0         0         0         0         0
         0         0         0         0         0         0         0         0
         0         0         0         0         0         0         0         0
         0         0         0         0         0         0         0         0
         0         0         0         0         0         0         0         0
         0         0         0         0         0         0         0         0
         0         0         0         0         0         0         0         0
         0         0         0         0         0         0         0         0
         0         0         0         0         0         0         0         0
         0         0         0         0         0         0         0         0
         0         0         0         0         0         0         0         0
         0         0         0         0         0         0         0         0
         0         0         0         0         0         0         0         0
         0         0         0         0         0         0         0         0
         0         0         0         0         0         0         0         0
         0         0         0         0         0         0         0         0
         0         0         0         0         0         0         0         0
         0         0         0         0         0         0         0         0
         0         0         0         0         0         0         0         0
         0         0         0         0         0         0         0         0
         0         0         0         0         0         0         0         0
         0         0         0         0         0         0         0         0
         0         0         0         0         0         0         0         0
         0         0         0         0         0         0         0         0
         0         0         0         0         0         0         0         0
         0         0         0         0         0         0         0         0
         0         0         0         0         0         0         0         0
         0         0         0         0         0         0         0         0
         0         0         0         0         0         0         0         0
         0         0         0         0         0         0         0         0
         0         0         0         0         0         0         0         0
         0         0         0         0         0         0         0         0
         0         0         0         0         0         0         0         0
         0         0         0         0         0         0         0         0
         0         0         0         0         0         0         0         0
         0         0         0         0         0         0         0         0
         0         0         0         0         0         0         0         0
         0         0         0         0         0         0         0         0
         0         0         0         0         0         0         0         0
         0         0         0         0         0         0         0         0
         0         0         0         0         0         0         0         0
         0         0         0         0         0         0         0         0
         0         0         0         0         0         0         0         0
         0         0         0         0         0         0         0         0
         0         0         0         0         0         0         0         0
         0         0         0         0         0         0         0         0
         0         0         0         0         0         0         0         0
         0         0         0         0         0         0         0         0
         0         0         0         0         0         0         0         0
         0         0         0         0         0         0         0         0
         0         0         0         0         0         0         0         0
         0         0         0         0         0         0         0         0
         0         0         0         0         0         0         0         0
         0         0         0         0         0         0         0         0
         0         0         0         0         0         0         0         0
         0         0         0         0         0         0         0         0
         0         0         0         0         0         0         0         0
         0         0         0         0         0         0         0         0
         0         0         0         0         0         0         0         0
         0         0         0         0         0         0         0         0
         0         0         0         0         0         0         0         0
         0         0         0         0         0         0         0         0
         0         0         0         0         0         0         0         0
         0         0         0         0         0         0         0         0
         0         0         0         0         0         0         0         0
         0         0         0         0         0         0         0         0
         0         0         0         0         0         0         0         0
         0         0         0         0         0         0         0         0
         0         0         0         0         0         0         0         0
         0         0         0         0         0         0         0         0
         0         0         0         0         0         0         0         0
         0         0         0         0         0         0         0         0
         0         0         0         0         0         0         0         0
         0         0         0         0         0         0         0         0
         0         0         0         0         0         0         0         0
         0         0         0         0         0         0         0         0
         0         0         0         0         0         0         0         0
         0         0         0         0         0         0         0         0
         0         0         0         0         0         0         0         0
         0         0         0         0         0         0         0         0
         0         0         0         0         0         0         0         0
         0         0         0         0         0         0         0         0
         0         0         0         0         0         0         0         0
         0         0         0         0         0         0         0         0
         0         0         0         0         0         0         0         0
         0         0         0         0         0         0         0         0
         0         0         0         0         0         0         0         0
         0         0         0         0         0         0         0         0
         0         0         0         0         0         0         0         0
         0         0         0         0         0         0         0         0
         0         0         0         0         0         0         0         0
         0         0         0         0         0         0         0         0
         0         0         0         0         0         0         0         0
         0         0         0         0         0         0         0         0
         0         0         0         0         0         0         0         0
         0         0         0         0         0         0         0         0
         0         0         0         0         0         0         0         0
         0         0         0         0         0         0         0         0
         0         0         0         0         0         0         0         0
         0         0         0         0         0         0         0         0
         0         0         0         0         0         0         0         0
         0         0         0         0         0         0         0         0
         0         0         0         0         0         0         0         0
         0         0         0         0         0         0         0         0
         0         0         0         0         0         0         0         0
         0         0         0         0         0         0         0         0
         0         0         0         0         0         0         0         0
         0         0         0         0         0         0         0         0
         0         0         0         0         0         0         0         0
         0         0         0         0         0         0         0         0
         0         0         0         0         0         0         0         0
         0         0         0         0         0         0         0         0
         0         0         0         0         0         0         0         0
         0         0         0         0         0         0         0         0
         0         0         0         0         0         0         0         0
         0         0         0         0         0         0         0         0
         0         0         0         0         0         0         0         0
         0         0         0         0         0         0         0         0
         0         0         0         0         0         0         0         0
         0         0         0         0         0         0         0         0
         0         0         0         0         0         0         0         0
         0         0         0         0         0         0         0         0
         0         0         0         0         0         0         0         0
         0         0         0         0         0         0         0         0
         0         0         0         0         0         0         0         0
         0         0         0         0         0         0         0         0
         0         0         0         0         0         0         0         0
         0         0         0         0         0         0         0         0
         0         0         0         0         0         0         0         0
         0         0         0         0         0         0         0         0
         0         0         0         0         0         0         0         0
         0         0         0         0         0         0         0         0
         0         0         0         0         0         0         0         0
         0         0         0         0         0         0         0         0
         0         0         0         0         0         0         0         0
         0         0         0         0         0         0         0         0
         0         0         0         0         0         0         0         0
         0         0         0         0         0         0         0         0
         0         0         0         0         0         0         0         0
         0         0         0         0         0         0         0         0
         0         0         0         0         0         0         0         0
         0         0         0         0         0         0         0         0
         0         0         0         0         0         0         0         0
         0         0         0         0         0         0         0         0
         0         0         0         0         0         0         0         0
         0         0         0         0         0         0         0         0
         0         0         0         0         0         0         0         0
         0         0         0         0         0         0         0         0
         0         0         0         0         0         0         0         0
         0         0         0         0         0         0         0         0
         0         0         0         0         0         0         0         0
         0         0         0         0         0         0         0         0
         0         0         0         0         0         0         0         0
         0         0         0         0         0         0         0         0
         0         0         0         0         0         0         0         0
         0         0         0         0         0         0         0         0
         0         0         0         0         0         0         0         0
         0         0         0         0         0         0         0         0
         0         0         0         0         0         0         0         0
         0         0         0         0         0         0         0         0
         0         0         0         0         0         0         0         0
         0         0         0         0         0         0         0         0
         0         0         0         0         0         0         0         0
         0         0         0         0         0         0         0         0
         0         0         0         0         0         0         0         0
         0         0         0         0         0         0         0         0
         0         0         0         0         0         0         0         0
         0         0         0         0         0         0         0         0
         0         0         0         0         0         0         0         0
         0         0         0         0         0         0         0         0
         0         0         0         0         0         0         0         0
         0         0         0         0         0         0         0         0
         0         0         0         0         0         0         0         0
         0         0         0         0         0         0         0         0
         0         0         0         0         0         0         0         0
         0         0         0         0         0         0         0         0
         0         0         0         0         0         0         0         0
         0         0         0         0         0         0         0         0
         0         0         0         0         0         0         0         0
         0         0         0         0         0         0         0         0
         0         0         0         0         0         0         0         0
         0         0         0         0         0         0         0         0
         0         0         0         0         0         0         0         0
         0         0         0         0         0         0         0         0
         0         0         0         0         0         0         0         0
         0         0         0         0         0         0         0         0
         0         0         0         0         0         0         0         0
         0         0         0         0         0         0         0         0
         0         0         0         0         0         0         0         0
         0         0         0         0         0         0         0         0
         0         0         0         0         0         0         0         0
         0         0         0         0         0         0         0         0
         0         0         0         0         0         0         0         0
         0         0         0         0         0         0         0         0
         0         0         0         0         0         0         0         0
         0         0         0         0         0         0         0         0
         0         0         0         0         0         0         0         0
         0         0         0         0         0         0         0         0
         0         0         0         0         0         0         0         0
         0         0         0         0         0         0         0         0
         0         0         0         0         0         0         0         0
         0         0         0         0         0         0         0         0
         0         0         0         0         0         0         0         0
         0         0         0         0         0         0         0         0
         0         0         0         0         0         0         0         0
         0         0         0         0         0         0         0         0
         0         0         0         0         0         0         0         0
         0         0         0         0         0         0         0         0
         0         0         0         0         0         0         0         0
         0         0         0         0         0         0         0         0
         0         0         0         0         0         0         0         0
         0         0         0         0         0         0         0         0
         0         0         0         0         0         0         0         0
         0         0         0         0         0         0         0         0
         0         0         0         0         0         0         0         0
         0         0         0         0         0         0         0         0
         0         0         0         0         0         0         0         0
         0         0         0         0         0         0         0         0
         0         0         0         0         0         0         0         0
         0         0         0         0         0         0         0         0
         0         0         0         0         0         0         0         0
         0         0         0         0         0         0         0         0
         0         0         0         0         0         0         0         0
         0         0         0         0         0         0         0         0
         0         0         0         0         0         0         0         0
         0         0         0         0         0         0         0         0
         0         0         0         0         0         0         0         0
         0         0         0         0         0         0         0         0
         0         0         0         0         0         0         0         0
         0         0         0         0         0         0         0         0
         0         0         0         0         0         0         0         0
         0         0         0         0         0         0         0         0
         0         0         0         0         0         0         0         0
         0         0         0         0         0         0         0         0
         0         0         0         0         0         0         0         0
         0         0         0         0         0         0         0         0
         0         0         0         0         0         0         0         0
         0         0         0         0         0         0         0         0
         0         0         0         0         0         0         0         0
         0         0         0         0         0         0         0         0
         0         0         0         0         0         0         0         0
         0         0         0         0         0         0         0         0
         0         0         0         0         0         0         0         0
         0         0         0         0         0         0         0         0
         0         0         0         0         0         0         0         0
         0         0         0         0         0         0         0         0
         0         0         0         0         0         0         0         0
         0         0         0         0         0         0         0         0
         0         0         0         0         0         0         0         0
         0         0         0         0         0         0         0         0
         0         0         0         0         0         0         0         0
         0         0         0         0         0         0         0         0
         0         0         0         0         0         0         0         0
         0         0         0         0         0         0         0         0
         0         0         0         0         0         0         0         0
         0         0         0         0         0         0         0         0
         0         0         0         0         0         0         0         0
         0         0         0         0         0         0         0         0
         0         0         0         0         0         0         0         0
         0         0         0         0         0         0         0         0
         0         0         0         0         0         0         0         0
         0         0         0         0         0         0         0         0
         0         0         0         0         0         0         0         0
         0         0         0         0         0         0         0         0
         0         0         0         0         0         0         0         0
         0         0         0         0         0         0         0         0
         0         0         0         0         0         0         0         0
         0         0         0         0         0         0         0         0
         0         0         0         0         0         0         0         0
         0         0         0         0         0         0         0         0
         0         0         0         0         0         0         0         0
         0         0         0         0         0         0         0         0
         0         0         0         0         0         0         0         0
         0         0         0         0         0         0         0         0
         0         0         0         0         0         0         0         0
         0         0         0         0         0         0         0         0
         0         0         0         0         0         0         0         0
         0         0         0         0         0         0         0         0
         0         0         0         0         0         0         0         0
         0         0         0         0         0         0         0         0
         0         0         0         0         0         0         0         0
         0         0         0         0         0         0         0         0
         0         0         0         0         0         0         0         0
         0         0         0         0         0         0         0         0
         0         0         0         0         0         0         0         0
         0         0         0         0         0         0         0         0
         0         0         0         0         0         0         0         0
         0         0         0         0         0         0         0         0
         0         0         0         0         0         0         0         0
         0         0         0         0         0         0         0         0
         0         0         0         0         0         0         0         0
         0         0         0         0         0         0         0         0
         0         0         0         0         0         0         0         0
         0         0         0         0         0         0         0         0
         0         0         0         0         0         0         0         0
         0         0         0         0         0         0         0         0
         0         0         0         0         0         0         0         0
         0         0         0         0         0         0         0         0
         0         0         0         0         0         0         0         0
         0         0         0         0         0         0         0         0
         0         0         0         0         0         0         0         0
         0         0         0         0         0         0         0         0
         0         0         0         0         0         0         0         0
         0         0         0         0         0         0         0         0
         0         0         0         0         0         0         0         0
         0         0         0         0         0         0         0         0
         0         0         0         0         0         0         0         0
         0         0         0         0         0         0         0         0
         0         0         0         0         0         0         0         0
         0         0         0         0         0         0         0         0
         0         0         0         0         0         0         0         0
         0         0         0         0         0         0         0         0
         0         0         0         0         0         0         0         0
         0         0         0         0         0         0         0         0
         0         0         0         0         0         0         0         0
         0         0         0         0         0         0         0         0
         0         0         0         0         0         0         0         0
         0         0         0         0         0         0         0         0
         0         0         0         0         0         0         0         0
         0         0         0         0         0         0         0         0
         0         0         0         0         0         0         0         0
         0         0         0         0         0         0         0         0
         0         0         0         0         0         0         0         0
         0         0         0         0         0         0         0         0
         0         0         0         0         0         0         0         0
         0         0         0         0         0         0         0         0
         0         0         0         0         0         0         0         0
         0         0         0         0         0         0         0         0
         0         0         0         0         0         0         0         0
         0         0         0         0         0         0         0         0
         0         0         0         0         0         0         0         0
         0         0         0         0         0         0         0         0
         0         0         0         0         0         0         0         0
         0         0         0         0         0         0         0         0
         0         0         0         0         0         0         0         0
         0         0         0         0         0         0         0         0
         0         0         0         0         0         0         0         0
         0         0         0         0         0         0         0         0
         0         0         0         0         0         0         0         0
         0         0         0         0         0         0         0         0
         0         0         0         0         0         0         0         0
         0         0         0         0         0         0         0         0
         0         0         0         0         0         0         0         0
         0         0         0         0         0         0         0         0
         0         0         0         0         0         0         0         0
         0         0         0         0         0         0         0         0
         0         0         0         0         0         0         0         0
         0         0         0         0         0         0         0         0
         0         0         0         0         0         0         0         0
         0         0         0         0         0         0         0         0
         0         0         0         0         0         0         0         0
         0         0         0         0         0         0         0         0
         0         0         0         0         0         0         0         0
         0         0         0         0         0         0         0         0
         0         0         0         0         0         0         0         0
         0         0         0         0         0         0         0         0
         0         0         0         0         0         0         0         0
         0         0         0         0         0         0         0         0
         0         0         0         0         0         0         0         0
         0         0         0         0         0         0         0         0
         0         0         0         0         0         0         0         0
         0         0         0         0         0         0         0         0
         0         0         0         0         0         0         0         0
         0         0         0         0         0         0         0         0
         0         0         0         0         0         0         0         0
         0         0         0         0         0         0         0         0
         0         0         0         0         0         0         0         0
         0         0         0         0         0         0         0         0
         0         0         0         0         0         0         0         0
         0         0         0         0         0         0         0         0
         0         0         0         0         0         0         0         0
         0         0         0         0         0         0         0         0
         0         0         0         0         0         0         0         0
         0         0         0         0         0         0         0         0
         0         0         0         0         0         0         0         0
         0         0         0         0         0         0         0         0
         0         0         0         0         0         0         0         0
         0         0         0         0         0         0         0         0
         0         0         0         0         0         0         0         0
         0         0         0         0         0         0         0         0
         0         0         0         0         0         0         0         0
         0         0         0         0         0         0         0         0
         0         0         0         0         0         0         0         0
         0         0         0         0         0         0         0         0
         0         0         0         0         0         0         0         0
         0         0         0         0         0         0         0         0
         0         0         0         0         0         0         0         0
         0         0         0         0         0         0         0         0
         0         0         0         0         0         0         0         0
         0         0         0         0         0         0         0         0
         0         0         0         0         0         0         0         0
         0         0         0         0         0         0         0         0
         0         0         0         0         0         0         0         0
         0         0         0         0         0         0         0         0
         0         0         0         0         0         0         0         0
         0         0         0         0         0         0         0         0
         0         0         0         0         0         0         0         0
         0         0         0         0         0         0         0         0
         0         0         0         0         0         0         0         0
         0         0         0         0         0         0         0         0
         0         0         0         0         0         0         0         0
         0         0         0         0         0         0         0         0
         0         0         0         0         0         0         0         0
         0         0         0         0         0         0         0         0
         0         0         0         0         0         0         0         0
         0         0         0         0         0         0         0         0
         0         0         0         0         0         0         0         0
         0         0         0         0         0         0         0         0
         0         0         0         0         0         0         0         0
         0         0         0         0         0         0         0         0
         0         0         0         0         0         0         0         0
         0         0         0         0         0         0         0         0
         0         0         0         0         0         0         0         0
         0         0         0         0         0         0         0         0
         0         0         0         0         0         0         0         0
         0         0         0         0         0         0         0         0
         0         0         0         0         0         0         0         0
         0         0         0         0         0         0         0         0
         0         0         0         0         0         0         0         0
         0         0         0         0         0         0         0         0
         0         0         0         0         0         0         0         0
         0         0         0         0         0         0         0         0
         0         0         0         0         0         0         0         0
         0         0         0         0         0         0         0         0
         0         0         0         0         0         0         0         0
         0         0         0         0         0         0         0         0
         0         0         0         0         0         0         0         0
         0         0         0         0         0         0         0         0
         0         0         0         0         0         0         0         0
         0         0         0         0         0         0         0         0
         0         0         0         0         0         0         0         0
         0         0         0         0         0         0         0         0
         0         0         0         0         0         0         0         0
         0         0         0         0         0         0         0         0
         0         0         0         0         0         0         0         0
         0         0         0         0         0         0         0         0
         0         0         0         0         0         0         0         0
         0         0         0         0         0         0         0         0
         0         0         0         0         0         0         0         0
         0         0         0         0         0         0         0         0
         0         0         0         0         0         0         0         0
         0         0         0         0         0         0         0         0
         0         0         0         0         0         0         0         0
         0         0         0         0         0         0         0         0
         0         0         0         0         0         0         0         0
         0         0         0         0         0         0         0         0
         0         0         0         0         0         0         0         0
         0         0         0         0         0         0         0         0
         0         0         0         0         0         0         0         0
         0         0         0         0         0         0         0         0
         0         0         0         0         0         0         0         0
         0         0         0         0         0         0         0         0
         0         0         0         0         0         0         0         0
         0         0         0         0         0         0         0         0
         0         0         0         0         0         0         0         0
         0         0         0         0         0         0         0         0
         0         0         0         0         0         0         0         0
         0         0         0         0         0         0         0         0
         0         0         0         0         0         0         0         0
         0         0         0         0         0         0         0         0
         0         0         0         0         0         0         0         0
         0         0         0         0         0         0         0         0
         0         0         0         0         0         0         0         0
         0         0         0         0         0         0         0         0
         0         0         0         0         0         0         0         0
         0         0         0         0         0         0         0         0
         0         0         0         0         0         0         0         0
         0         0         0         0         0         0         0         0
         0         0         0         0         0         0         0         0
         0         0         0         0         0         0         0         0
         0         0         0         0         0         0         0         0
         0         0         0         0         0         0         0         0
         0         0         0         0         0         0         0         0
         0         0         0         0         0         0         0         0
         0         0         0         0         0         0         0         0
         0         0         0         0         0         0         0         0
         0         0         0         0         0         0         0         0
         0         0         0         0         0         0         0         0
         0         0         0         0         0         0         0         0
         0         0         0         0         0         0         0         0
         0         0         0         0         0         0         0         0
         0         0         0         0         0         0         0         0
         0         0         0         0         0         0         0         0
         0         0         0         0         0         0         0         0
         0         0         0         0         0         0         0         0
         0         0         0         0         0         0         0         0
         0         0         0         0         0         0         0         0
         0         0         0         0         0         0         0         0
         0         0         0         0         0         0         0         0
         0         0         0         0         0         0         0         0
         0         0         0         0         0         0         0         0
         0         0         0         0         0         0         0         0
         0         0         0         0         0         0         0         0
         0         0         0         0         0         0         0         0
         0         0         0         0         0         0         0         0
         0         0         0         0         0         0         0         0
         0         0         0         0         0         0         0         0
         0         0         0         0         0         0         0         0
         0         0         0         0         0         0         0         0
         0         0         0         0         0         0         0         0
         0         0         0         0         0         0         0         0
         0         0         0         0         0         0         0         0
         0         0         0         0         0         0         0         0
         0         0         0         0         0         0         0         0
         0         0         0         0         0         0         0         0
         0         0         0         0         0         0         0         0
         0         0         0         0         0         0         0         0
         0         0         0         0         0         0         0         0
         0         0         0         0         0         0         0         0
         0         0         0         0         0         0         0         0
         0         0         0         0         0         0         0         0
         0         0         0         0         0         0         0         0
         0         0         0         0         0         0         0         0
         0         0         0         0         0         0         0         0
         0         0         0         0         0         0         0         0
         0         0         0         0         0         0         0         0
         0         0         0         0         0         0         0         0
         0         0         0         0         0         0         0         0
         0         0         0         0         0         0         0         0
         0         0         0         0         0         0         0         0
         0         0         0         0         0         0         0         0
         0         0         0         0         0         0         0         0
         0         0         0         0         0         0         0         0
         0         0         0         0         0         0         0         0
         0         0         0         0         0         0         0         0
         0         0         0         0         0         0         0         0
         0         0         0         0         0         0         0         0
         0         0         0         0         0         0         0         0
         0         0         0         0         0         0         0         0
         0         0         0         0         0         0         0         0
         0         0         0         0         0         0         0         0
         0         0         0         0         0         0         0         0
         0         0         0         0         0         0         0         0
         0         0         0         0         0         0         0         0
         0         0         0         0         0         0         0         0
         0         0         0         0         0         0         0         0
         0         0         0         0         0         0         0         0
         0         0         0         0         0         0         0         0
         0         0         0         0         0         0         0         0
         0         0         0         0         0         0         0         0
         0         0         0         0         0         0         0         0
         0         0         0         0         0         0         0         0
         0         0         0         0         0         0         0         0
         0         0         0         0         0         0         0         0
         0         0         0         0         0         0         0         0
         0         0         0         0         0         0         0         0
         0         0         0         0         0         0         0         0
         0         0         0         0         0         0         0         0
         0         0         0         0         0         0         0         0
         0         0         0         0         0         0         0         0
         0         0         0         0         0         0         0         0
         0         0         0         0         0         0         0         0
         0         0         0         0         0         0         0         0
         0         0         0         0         0         0         0         0
         0         0         0         0         0         0         0         0
         0         0         0         0         0         0         0         0
         0         0         0         0         0         0         0         0
         0         0         0         0         0         0         0         0
         0         0         0         0         0         0         0         0
         0         0         0         0         0         0         0         0
         0         0         0         0         0         0         0         0
         0         0         0         0         0         0         0         0
         0         0         0         0         0         0         0         0
         0         0         0         0         0         0         0         0
         0         0         0         0         0         0         0         0
         0         0         0         0         0         0         0         0
         0         0         0         0         0         0         0         0
         0         0         0         0         0         0         0         0
         0         0         0         0         0         0         0         0
         0         0         0         0         0         0         0         0
         0         0         0         0         0         0         0         0
         0         0         0         0         0         0         0         0
         0         0         0         0         0         0         0         0
         0         0         0         0         0         0         0         0
         0         0         0         0         0         0         0         0
         0         0         0         0         0         0         0         0
         0         0         0         0         0         0         0         0
         0         0         0         0         0         0         0         0
         0         0         0         0         0         0         0         0
         0         0         0         0         0         0         0         0
         0         0         0         0         0         0         0         0
         0         0         0         0         0         0         0         0
         0         0         0         0         0         0         0         0
         0         0         0         0         0         0         0         0
         0         0         0         0         0         0         0         0
         0         0         0         0         0         0         0         0
         0         0         0         0         0         0         0         0
         0         0         0         0         0         0         0         0
         0         0         0         0         0         0         0         0
         0         0         0         0         0         0         0         0
         0         0         0         0         0         0         0         0
         0         0         0         0         0         0         0         0
         0         0         0         0         0         0         0         0
         0         0         0         0         0         0         0         0
         0         0         0         0         0         0         0         0
         0         0         0         0         0         0         0         0
         0         0         0         0         0         0         0         0
         0         0         0         0         0         0         0         0
         0         0         0         0         0         0         0         0
         0         0         0         0         0         0         0         0
         0         0         0         0         0         0         0         0
         0         0         0         0         0         0         0         0
         0         0         0         0         0         0         0         0
         0         0         0         0         0         0         0         0
         0         0         0         0         0         0         0         0
         0         0         0         0         0         0         0         0
         0         0         0         0         0         0         0         0
         0         0         0         0         0         0         0         0
         0         0         0         0         0         0         0         0
         0         0         0         0         0         0         0         0
         0         0         0         0         0         0         0         0
         0         0         0         0         0         0         0         0
         0         0         0         0         0         0         0         0
         0         0         0         0         0         0         0         0
         0         0         0         0         0         0         0         0
         0         0         0         0         0         0         0         0
         0         0         0         0         0         0         0         0
         0         0         0         0         0         0         0         0
         0         0         0         0         0         0         0         0
         0         0         0         0         0         0         0         0
         0         0         0         0         0         0         0         0
         0         0         0         0         0         0         0         0
         0         0         0         0         0         0         0         0
         0         0         0         0         0         0         0         0
         0         0         0         0         0         0         0         0
         0         0         0         0         0         0         0         0
         0         0         0         0         0         0         0         0
         0         0         0         0         0         0         0         0
         0         0         0         0         0         0         0         0
         0         0         0         0         0         0         0         0
         0         0         0         0         0         0         0         0
         0         0         0         0         0         0         0         0
         0         0         0         0         0         0         0         0
         0         0         0         0         0         0         0         0
         0         0         0         0         0         0         0         0
         0         0         0         0         0         0         0         0
         0         0         0         0         0         0         0         0
         0         0         0         0         0         0         0         0
         0         0         0         0         0         0         0         0
         0         0         0         0         0         0         0         0
         0         0         0         0         0         0         0         0
         0         0         0         0         0         0         0         0
         0         0         0         0         0         0         0         0
         0         0         0         0         0         0         0         0
         0         0         0         0         0         0         0         0
         0         0         0         0         0         0         0         0
         0         0         0         0         0         0         0         0
         0         0         0         0         0         0         0         0
         0         0         0         0         0         0         0         0
         0         0         0         0         0         0         0         0
         0         0         0         0         0         0         0         0
         0         0         0         0         0         0         0         0
         0         0         0         0         0         0         0         0
         0         0         0         0         0         0         0         0
         0         0         0         0         0         0         0         0
         0         0         0         0         0         0         0         0
         0         0         0         0         0         0         0         0
         0         0         0         0         0         0         0         0
         0         0         0         0         0         0         0         0
         0         0         0         0         0         0         0         0
         0         0         0         0         0         0         0         0
         0         0         0         0         0         0         0         0
         0         0         0         0         0         0         0         0
         0         0         0         0         0         0         0         0
         0         0         0         0         0         0         0         0
         0         0         0         0         0         0         0         0
         0         0         0         0         0         0         0         0
         0         0         0         0         0         0         0         0
         0         0         0         0         0         0         0         0
         0         0         0         0         0         0         0         0
         0         0         0         0         0         0         0         0
         0         0         0         0         0         0         0         0
         0         0         0         0         0         0         0         0
         0         0         0         0         0         0         0         0
         0         0         0         0         0         0         0         0
         0         0         0         0         0         0         0         0
         0         0         0         0         0         0         0         0
         0         0         0         0         0         0         0         0
         0         0         0         0         0         0         0         0
         0         0         0         0         0         0         0         0
         0         0         0         0         0         0         0         0
         0         0         0         0         0         0         0         0
         0         0         0         0         0         0         0         0
         0         0         0         0         0         0         0         0
         0         0         0         0         0         0         0         0
         0         0         0         0         0         0         0         0
         0         0         0         0         0         0         0         0
         0         0         0         0         0         0         0         0
         0         0         0         0         0         0         0         0
         0         0         0         0         0         0         0         0
         0         0         0         0         0         0         0         0
         0         0         0         0         0         0         0         0
         0         0         0         0         0         0         0         0
         0         0         0         0         0         0         0         0
         0         0         0         0         0         0         0         0
         0         0         0         0         0         0         0         0
         0         0         0         0         0         0         0         0
         0         0         0         0         0         0         0         0
         0         0         0         0         0         0         0         0
         0         0         0         0         0         0         0         0
         0         0         0         0         0         0         0         0
         0         0         0         0         0         0         0         0
         0         0         0         0         0         0         0         0
         0         0         0         0         0         0         0         0
         0         0         0         0         0         0         0         0
         0         0         0         0         0         0         0         0
         0         0         0         0         0         0         0         0
         0         0         0         0         0         0         0         0
         0         0         0         0         0         0         0         0
         0         0         0         0         0         0         0         0
         0         0         0         0         0         0         0         0
         0         0         0         0         0         0         0         0
         0         0         0         0         0         0         0         0
         0         0         0         0         0         0         0         0
         0         0         0         0         0         0         0         0
         0         0         0         0         0         0         0         0
         0         0         0         0         0         0         0         0
         0         0         0         0         0         0         0         0
         0         0         0         0         0         0         0         0
         0         0         0         0         0         0         0         0
         0         0         0         0         0         0         0         0
         0         0         0         0         0         0         0         0
         0         0         0         0         0         0         0         0
         0         0         0         0         0         0         0         0
         0         0         0         0         0         0         0         0
         0         0         0         0         0         0         0         0
         0         0         0         0         0         0         0         0
         0         0         0         0         0         0         0         0
         0         0         0         0         0         0         0         0
         0         0         0         0         0         0         0         0
         0         0         0         0         0         0         0         0
         0         0         0         0         0         0         0         0
         0         0         0         0         0         0         0         0
         0         0         0         0         0         0         0         0
         0         0         0         0         0         0         0         0
         0         0         0         0         0         0         0         0
         0         0         0         0         0         0         0         0
         0         0         0         0         0         0         0         0
         0         0         0         0         0         0         0         0
         0         0         0         0         0         0         0         0
         0         0         0         0         0         0         0         0
         0         0         0         0         0         0         0         0
         0         0         0         0         0         0         0         0
         0         0         0         0         0         0         0         0
         0         0         0         0         0         0         0         0
         0         0         0         0         0         0         0         0
         0         0         0         0         0         0         0         0
         0         0         0         0         0         0         0         0
         0         0         0         0         0         0         0         0
         0         0         0         0         0         0         0         0
         0         0         0         0         0         0         0         0
         0         0         0         0         0         0         0         0
         0         0         0         0         0         0         0         0
         0         0         0         0         0         0         0         0
         0         0         0         0         0         0         0         0
         0         0         0         0         0         0         0         0
         0         0         0         0         0         0         0         0
         0         0         0         0         0         0         0         0
         0         0         0         0         0         0         0         0
         0         0         0         0         0         0         0         0
         0         0         0         0         0         0         0         0
         0         0         0         0         0         0         0         0
         0         0         0         0         0         0         0         0
         0         0         0         0         0         0         0         0
         0         0         0         0         0         0         0         0
         0         0         0         0         0         0         0         0
         0         0         0         0         0         0         0         0
         0         0         0         0         0         0         0         0
         0         0         0         0         0         0         0         0
         0         0         0         0         0         0         0         0
         0         0         0         0         0         0         0         0
         0         0         0         0         0         0         0         0
         0         0         0         0         0         0         0         0
         0         0         0         0         0         0         0         0
         0         0         0         0         0         0         0         0
         0         0         0         0         0         0         0         0
         0         0         0         0         0         0         0         0
         0         0         0         0         0         0         0         0
         0         0         0         0         0         0         0         0
         0         0         0         0         0         0         0         0
         0         0         0         0         0         0         0         0
         0         0         0         0         0         0         0         0
         0         0         0         0         0         0         0         0
         0         0         0         0         0         0         0         0
         0         0         0         0         0         0         0         0
         0         0         0         0         0         0         0         0
         0         0         0         0         0         0         0         0
         0         0         0         0         0         0         0         0
         0         0         0         0         0         0         0         0
         0         0         0         0         0         0         0         0
         0         0         0         0         0         0         0         0
         0         0         0         0         0         0         0         0
         0         0         0         0         0         0         0         0
         0         0         0         0         0         0         0         0
         0         0         0         0         0         0         0         0
         0         0         0         0         0         0         0         0
         0         0         0         0         0         0         0         0
         0         0         0         0         0         0         0         0
         0         0         0         0         0         0         0         0
         0         0         0         0         0         0         0         0
         0         0         0         0         0         0         0         0
         0         0         0         0         0         0         0         0
         0         0         0         0         0         0         0         0
         0         0         0         0         0         0         0         0
         0         0         0         0         0         0         0         0
         0         0         0         0         0         0         0         0
         0         0         0         0         0         0         0         0
         0         0         0         0         0         0         0         0
         0         0         0         0         0         0         0         0
         0         0         0         0         0         0         0         0
         0         0         0         0         0         0         0         0
         0         0         0         0         0         0         0         0
         0         0         0         0         0         0         0         0
         0         0         0         0         0         0         0         0
         0         0         0         0         0         0         0         0
         0         0         0         0         0         0         0         0
         0         0         0         0         0         0         0         0
         0         0         0         0         0         0         0         0
         0         0         0         0         0         0         0         0
         0         0         0         0         0         0         0         0
         0         0         0         0         0         0         0         0
         0         0         0         0         0         0         0         0
         0         0         0         0         0         0         0         0
         0         0         0         0         0         0         0         0
         0         0         0         0         0         0         0         0
         0         0         0         0         0         0         0         0
         0         0         0         0         0         0         0         0
         0         0         0         0         0         0         0         0
         0         0         0         0         0         0         0         0
         0         0         0         0         0         0         0         0
         0         0         0         0         0         0         0         0
         0         0         0         0         0         0         0         0
         0         0         0         0         0         0         0         0
         0         0         0         0         0         0         0         0
         0         0         0         0         0         0         0         0
         0         0         0         0         0         0         0         0
         0         0         0         0         0         0         0         0
         0         0         0         0         0         0         0         0
         0         0         0         0         0         0         0         0
         0         0         0         0         0         0         0         0
         0         0         0         0         0         0         0         0
         0         0         0         0         0         0         0         0
         0         0         0         0         0         0         0         0
         0         0         0         0         0         0         0         0
         0         0         0         0         0         0         0         0
         0         0         0         0         0         0         0         0
         0         0         0         0         0         0         0         0
         0         0         0         0         0         0         0         0
         0         0         0         0         0         0         0         0
         0         0         0         0         0         0         0         0
         0         0         0         0         0         0         0         0
         0         0         0         0         0         0         0         0
         0         0         0         0         0         0         0         0
         0         0         0         0         0         0         0         0
         0         0         0         0         0         0         0         0
         0         0         0         0         0         0         0         0
         0         0         0         0         0         0         0         0
         0         0         0         0         0         0         0         0
         0         0         0         0         0         0         0         0
         0         0         0         0         0         0         0         0
         0         0         0         0         0         0         0         0
         0         0         0         0         0         0         0         0
         0         0         0         0         0         0         0         0
         0         0         0         0         0         0         0         0
         0         0         0         0         0         0         0         0
         0         0         0         0         0         0         0         0
         0         0         0         0         0         0         0         0
         0         0         0         0         0         0         0         0
         0         0         0         0         0         0         0         0
         0         0         0         0         0         0         0         0
         0         0         0         0         0         0         0         0
         0         0         0         0         0         0         0         0
         0         0         0         0         0         0         0         0
         0         0         0         0         0         0         0         0
         0         0         0         0         0         0         0         0
         0         0         0         0         0         0         0         0
         0         0         0         0         0         0         0         0
         0         0         0         0         0         0         0         0
         0         0         0         0         0         0         0         0
         0         0         0         0         0         0         0         0
         0         0         0         0         0         0         0         0
         0         0         0         0         0         0         0         0
         0         0         0         0         0         0         0         0
         0         0         0         0         0         0         0         0
         0         0         0         0         0         0         0         0
         0         0         0         0         0         0         0         0
         0         0         0         0         0         0         0         0
         0         0         0         0         0         0         0         0
         0         0         0         0         0         0         0         0
         0         0         0         0         0         0         0         0
         0         0         0         0         0         0         0         0
         0         0         0         0         0         0         0         0
         0         0         0         0         0         0         0         0
         0         0         0         0         0         0         0         0
         0         0         0         0         0         0         0         0
         0         0         0         0         0         0         0         0
         0         0         0         0         0         0         0         0
         0         0         0         0         0         0         0         0
         0         0         0         0         0         0         0         0
         0         0         0         0         0         0         0         0
         0         0         0         0         0         0         0         0
         0         0         0         0         0         0         0         0
         0         0         0         0         0         0         0         0
         0         0         0         0         0         0         0         0
         0         0         0         0         0         0         0         0
         0         0         0         0         0         0         0         0
         0         0         0         0         0         0         0         0
         0         0         0         0         0         0         0         0
         0         0         0         0         0         0         0         0
         0         0         0         0         0         0         0         0
         0         0         0         0         0         0         0         0
         0         0         0         0         0         0         0         0
         0         0         0         0         0         0         0         0
         0         0         0         0         0         0         0         0
         0         0         0         0         0         0         0         0
         0         0         0         0         0         0         0         0
         0         0         0         0         0         0         0         0
         0         0         0         0         0         0         0         0
         0         0         0         0         0         0         0         0
         0         0         0         0         0         0         0         0
         0         0         0         0         0         0         0         0
         0         0         0         0         0         0         0         0
         0         0         0         0         0         0         0         0
         0         0         0         0         0         0         0         0
         0         0         0         0         0         0         0         0
         0         0         0         0         0         0         0         0
         0         0         0         0         0         0         0         0
         0         0         0         0         0         0         0         0
         0         0         0         0         0         0         0         0
         0         0         0         0         0         0         0         0
         0         0         0         0         0         0         0         0
         0         0         0         0         0         0         0         0
         0         0         0         0         0         0         0         0
         0         0         0         0         0         0         0         0
         0         0         0         0         0         0         0         0
         0         0         0         0         0         0         0         0
         0         0         0         0         0         0         0         0
         0         0         0         0         0         0         0         0
         0         0         0         0         0         0         0         0
         0         0         0         0         0         0         0         0
         0         0         0         0         0         0         0         0
         0         0         0         0         0         0         0         0
         0         0         0         0         0         0         0         0
         0         0         0         0         0         0         0         0
         0         0         0         0         0         0         0         0
         0         0         0         0         0         0         0         0
         0         0         0         0         0         0         0         0
         0         0         0         0         0         0         0         0
         0         0         0         0         0         0         0         0
         0         0         0         0         0         0         0         0
         0         0         0         0         0         0         0         0
         0         0         0         0         0         0         0         0
         0         0         0         0         0         0         0         0
         0         0         0         0         0         0         0         0
         0         0         0         0         0         0         0         0
         0         0         0         0         0         0         0         0
         0         0         0         0         0         0         0         0
         0         0         0         0         0         0         0         0
         0         0         0         0         0         0         0         0
         0         0         0         0         0         0         0         0
         0         0         0         0         0         0         0         0
         0         0         0         0         0         0         0         0
         0         0         0         0         0         0         0         0
         0         0         0         0         0         0         0         0
         0         0         0         0         0         0         0         0
         0         0         0         0         0         0         0         0
         0         0         0         0         0         0         0         0
         0         0         0         0         0         0         0         0
         0         0         0         0         0         0         0         0
         0         0         0         0         0         0         0         0
         0         0         0         0         0         0         0         0
         0         0         0         0         0         0         0         0
         0         0         0         0         0         0         0         0
         0         0         0         0         0         0         0         0
         0         0         0         0         0         0         0         0
         0         0         0         0         0         0         0         0
         0         0         0         0         0         0         0         0
         0         0         0         0         0         0         0         0
         0         0         0         0         0         0         0         0
         0         0         0         0         0         0         0         0
         0         0         0         0         0         0         0         0
         0         0         0         0         0         0         0         0
         0         0         0         0         0         0         0         0
         0         0         0         0         0         0         0         0
         0         0         0         0         0         0         0         0
         0         0         0         0         0         0         0         0
         0         0         0         0         0         0         0         0
         0         0         0         0         0         0         0         0
         0         0         0         0         0         0         0         0
         0         0         0         0         0         0         0         0
         0         0         0         0         0         0         0         0
         0         0         0         0         0         0         0         0
         0         0         0         0         0         0         0         0
         0         0         0         0         0         0         0         0
         0         0         0         0         0         0         0         0
         0         0         0         0         0         0         0         0
         0         0         0         0         0         0         0         0
         0         0         0         0         0         0         0         0
         0         0         0         0         0         0         0         0
         0         0         0         0         0         0         0         0
         0         0         0         0         0         0         0         0
         0         0         0         0         0         0         0         0
         0         0         0         0         0         0         0         0
         0         0         0         0         0         0         0         0
         0         0         0         0         0         0         0         0
         0         0         0         0         0         0         0         0
         0         0         0         0         0         0         0         0
         0         0         0         0         0         0         0         0
         0         0         0         0         0         0         0         0
         0         0         0         0         0         0         0         0
         0         0         0         0         0         0         0         0
         0         0         0         0         0         0         0         0
         0         0         0         0         0         0         0         0
         0         0         0         0         0         0         0         0
         0         0         0         0         0         0         0         0
         0         0         0         0         0         0         0         0
         0         0         0         0         0         0         0         0
         0         0         0         0         0         0         0         0
         0         0         0         0         0         0         0         0
         0         0         0         0         0         0         0         0
         0         0         0         0         0         0         0         0
         0         0         0         0         0         0         0         0
         0         0         0         0         0         0         0         0
         0         0         0         0         0         0         0         0
         0         0         0         0         0         0         0         0
         0         0         0         0         0         0         0         0
         0         0         0         0         0         0         0         0
         0         0         0         0         0         0         0         0
         0         0         0         0         0         0         0         0
         0         0         0         0         0         0         0         0
         0         0         0         0         0         0         0         0
         0         0         0         0         0         0         0         0
         0         0         0         0         0         0         0         0
         0         0         0         0         0         0         0         0
         0         0         0         0         0         0         0         0
         0         0         0         0         0         0         0         0
         0         0         0         0         0         0         0         0
         0         0         0         0         0         0         0         0
         0         0         0         0         0         0         0         0
         0         0         0         0         0         0         0         0
         0         0         0         0         0         0         0         0
         0         0         0         0         0         0         0         0
         0         0         0         0         0         0         0         0
         0         0         0         0         0         0         0         0
         0         0         0         0         0         0         0         0
         0         0         0         0         0         0         0         0
         0         0         0         0         0         0         0         0
         0         0         0         0         0         0         0         0
         0         0         0         0         0         0         0         0
         0         0         0         0         0         0         0         0
         0         0         0         0         0         0         0         0
         0         0         0         0         0         0         0         0
         0         0         0         0         0         0         0         0
         0         0         0         0         0         0         0         0
         0         0         0         0         0         0         0         0
         0         0         0         0         0         0         0         0
         0         0         0         0         0         0         0         0
         0         0         0         0         0         0         0         0
         0         0         0         0         0         0         0         0
         0         0         0         0         0         0         0         0
         0         0         0         0         0         0         0         0
         0         0         0         0         0         0         0         0
         0         0         0         0         0         0         0         0
         0         0         0         0         0         0         0         0
         0         0         0         0         0         0         0         0
         0         0         0         0         0         0         0         0
         0         0         0         0         0         0         0         0
         0         0         0         0         0         0         0         0
         0         0         0         0         0         0         0         0
         0         0         0         0         0         0         0         0
         0         0         0         0         0         0         0         0
         0         0         0         0         0         0         0         0
         0         0         0         0         0         0         0         0
         0         0         0         0         0         0         0         0
         0         0         0         0         0         0         0         0
         0         0         0         0         0         0         0         0
         0         0         0         0         0         0         0         0
         0         0         0         0         0         0         0         0
         0         0         0         0         0         0         0         0
         0         0         0         0         0         0         0         0
         0         0         0         0         0         0         0         0
         0         0         0         0         0         0         0         0
         0         0         0         0         0         0         0         0
         0         0         0         0         0         0         0         0
         0         0         0         0         0         0         0         0
         0         0         0         0         0         0         0         0
         0         0         0         0         0         0         0         0
         0         0         0         0         0         0         0         0
         0         0         0         0         0         0         0         0
         0         0         0         0         0         0         0         0
         0         0         0         0         0         0         0         0
         0         0         0         0         0         0         0         0
         0         0         0         0         0         0         0         0
         0         0         0         0         0         0         0         0
         0         0         0         0         0         0         0         0
         0         0         0         0         0         0         0         0
         0         0         0         0         0         0         0         0
         0         0         0         0         0         0         0         0
         0         0         0         0         0         0         0         0
         0         0         0         0         0         0         0         0
         0         0         0         0         0         0         0         0
         0         0         0         0         0         0         0         0
         0         0         0         0         0         0         0         0
         0         0         0         0         0         0         0         0
         0         0         0         0         0         0         0         0
         0         0         0         0         0         0         0         0
         0         0         0         0         0         0         0         0
         0         0         0         0         0         0         0         0
         0         0         0         0         0         0         0         0
         0         0         0         0         0         0         0         0
         0         0         0         0         0         0         0         0
         0         0         0         0         0         0         0         0
         0         0         0         0         0         0         0         0
         0         0         0         0         0         0         0         0
         0         0         0         0         0         0         0         0
         0         0         0         0         0         0         0         0
         0         0         0         0         0         0         0         0
         0         0         0         0         0         0         0         0
         0         0         0         0         0         0         0         0
         0         0         0         0         0         0         0         0
         0         0         0         0         0         0         0         0
         0         0         0         0         0         0         0         0
         0         0         0         0         0         0         0         0
         0         0         0         0         0         0         0         0
         0         0         0         0         0         0         0         0
         0         0         0         0         0         0         0         0
         0         0         0         0         0         0         0         0
         0         0         0         0         0         0         0         0
         0         0         0         0         0         0         0         0
         0         0         0         0         0         0         0         0
         0         0         0         0         0         0         0         0
         0         0         0         0         0         0         0         0
         0         0         0         0         0         0         0         0
         0         0         0         0         0         0         0         0
         0         0         0         0         0         0         0         0
         0         0         0         0         0         0         0         0
         0         0         0         0         0         0         0         0
         0         0         0         0         0         0         0         0
         0         0         0         0         0         0         0         0
         0         0         0         0         0         0         0         0
         0         0         0         0         0         0         0         0
         0         0         0         0         0         0         0         0
         0         0         0         0         0         0         0         0
         0         0         0         0         0         0         0         0
         0         0         0         0         0         0         0         0
         0         0         0         0         0         0         0         0
         0         0         0         0         0         0         0         0
         0         0         0         0         0         0         0         0
         0         0         0         0         0         0         0         0
         0         0         0         0         0         0         0         0
         0         0         0         0         0         0         0         0
         0         0         0         0         0         0         0         0
         0         0         0         0         0         0         0         0
         0         0         0         0         0         0         0         0
         0         0         0         0         0         0         0         0
         0         0         0         0         0         0         0         0
         0         0         0         0         0         0         0         0
         0         0         0         0         0         0         0         0
         0         0         0         0         0         0         0         0
         0         0         0         0         0         0         0         0
         0         0         0         0         0         0         0         0
         0         0         0         0         0         0         0         0
         0         0         0         0         0         0         0         0
         0         0         0         0         0         0         0         0
         0         0         0         0         0         0         0         0
         0         0         0         0         0         0         0         0
         0         0         0         0         0         0         0         0
         0         0         0         0         0         0         0         0
         0         0         0         0         0         0         0         0
         0         0         0         0         0         0         0         0
         0         0         0         0         0         0         0         0
         0         0         0         0         0         0         0         0
         0         0         0         0         0         0         0         0
         0         0         0         0         0         0         0         0
         0         0         0         0         0         0         0         0
         0         0         0         0         0         0         0         0
         0         0         0         0         0         0         0         0
         0         0         0         0         0         0         0         0
         0         0         0         0         0         0         0         0
         0         0         0         0         0         0         0         0
         0         0         0         0         0         0         0         0
         0         0         0         0         0         0         0         0
         0         0         0         0         0         0         0         0
         0         0         0         0         0         0         0         0
         0         0         0         0         0         0         0         0
         0         0         0         0         0         0         0         0
         0         0         0         0         0         0         0         0
         0         0         0         0         0         0         0         0
         0         0         0         0         0         0         0         0
         0         0         0         0         0         0         0         0
         0         0         0         0         0         0         0         0
         0         0         0         0         0         0         0         0
         0         0         0         0         0         0         0         0
         0         0         0         0         0         0         0         0
         0         0         0         0         0         0         0         0
         0         0         0         0         0         0         0         0
         0         0         0         0         0         0         0         0
         0         0         0         0         0         0         0         0
         0         0         0         0         0         0         0         0
         0         0         0         0         0         0         0         0
         0         0         0         0         0         0         0         0
         0         0         0         0         0         0         0         0
         0         0         0         0         0         0         0         0
         0         0         0         0         0         0         0         0
         0         0         0         0         0         0         0         0
         0         0         0         0         0         0         0         0
         0         0         0         0         0         0         0         0
         0         0         0         0         0         0         0         0
         0         0         0         0         0         0         0         0
         0         0         0         0         0         0         0         0
         0         0         0         0         0         0         0         0
         0         0         0         0         0         0         0         0
         0         0         0         0         0         0         0         0
         0         0         0         0         0         0         0         0
         0         0         0         0         0         0         0         0
         0         0         0         0         0         0         0         0
         0         0         0         0         0         0         0         0
         0         0         0         0         0         0         0         0
         0         0         0         0         0         0         0         0
         0         0         0         0         0         0         0         0
         0         0         0         0         0         0         0         0
         0         0         0         0         0         0         0         0
         0         0         0         0         0         0         0         0
         0         0         0         0         0         0         0         0
         0         0         0         0         0         0         0         0
         0         0         0         0         0         0         0         0
         0         0         0         0         0         0         0         0
         0         0         0         0         0         0         0         0
         0         0         0         0         0         0         0         0
         0         0         0         0         0         0         0         0
         0         0         0         0         0         0         0         0
         0         0         0         0         0         0         0         0
         0         0         0         0         0         0         0         0
         0         0         0         0         0         0         0         0
         0         0         0         0         0         0         0         0
         0         0         0         0         0         0         0         0
         0         0         0         0         0         0         0         0
         0         0         0         0         0         0         0         0
         0         0         0         0         0         0         0         0
         0         0         0         0         0         0         0         0
         0         0         0         0         0         0         0         0
         0         0         0         0         0         0         0         0
         0         0         0         0         0         0         0         0
         0         0         0         0         0         0         0         0
         0         0         0         0         0         0         0         0
         0         0         0         0         0         0         0         0
         0         0         0         0         0         0         0         0
         0         0         0         0         0         0         0         0
         0         0         0         0         0         0         0         0
         0         0         0         0         0         0         0         0
         0         0         0         0         0         0         0         0
         0         0         0         0         0         0         0         0
         0         0         0         0         0         0         0         0
         0         0         0         0         0         0         0         0
         0         0         0         0         0         0         0         0
         0         0         0         0         0         0         0         0
         0         0         0         0         0         0         0         0
         0         0         0         0         0         0         0         0
         0         0         0         0         0         0         0         0
         0         0         0         0         0         0         0         0
         0         0         0         0         0         0         0         0
         0         0         0         0         0         0         0         0
         0         0         0         0         0         0         0         0
         0         0         0         0         0         0         0         0
         0         0         0         0         0         0         0         0
         0         0         0         0         0         0         0         0
         0         0         0         0         0         0         0         0
         0         0         0         0         0         0         0         0
         0         0         0         0         0         0         0         0
         0         0         0         0         0         0         0         0
         0         0         0         0         0         0         0         0
         0         0         0         0         0         0         0         0
         0         0         0         0         0         0         0         0
         0         0         0         0         0         0         0         0
         0         0         0         0         0         0         0         0
         0         0         0         0         0         0         0         0
         0         0         0         0         0         0         0         0
         0         0         0         0         0         0         0         0
         0         0         0         0         0         0         0         0
         0         0         0         0         0         0         0         0
         0         0         0         0         0         0         0         0
         0         0         0         0         0         0         0         0
         0         0         0         0         0         0         0         0
         0         0         0         0         0         0         0         0
         0         0         0         0         0         0         0         0
         0         0         0         0         0         0         0         0
         0         0         0         0         0         0         0         0
         0         0         0         0         0         0         0         0
         0         0         0         0         0         0         0         0
         0         0         0         0         0         0         0         0
         0         0         0         0         0         0         0         0
         0         0         0         0         0         0         0         0
         0         0         0         0         0         0         0         0
         0         0         0         0         0         0         0         0
         0         0         0         0         0         0         0         0
         0         0         0         0         0         0         0         0
         0         0         0         0         0         0         0         0
         0         0         0         0         0         0         0         0
         0         0         0         0         0         0         0         0
         0         0         0         0         0         0         0         0
         0         0         0         0         0         0         0         0
         0         0         0         0         0         0         0         0
         0         0         0         0         0         0         0         0
         0         0         0         0         0         0         0         0
         0         0         0         0         0         0         0         0
         0         0         0         0         0         0         0         0
         0         0         0         0         0         0         0         0
         0         0         0         0         0         0         0         0
         0         0         0         0         0         0         0         0
         0         0         0         0         0         0         0         0
         0         0         0         0         0         0         0         0
         0         0         0         0         0         0         0         0
         0         0         0         0         0         0         0         0
         0         0         0         0         0         0         0         0
         0         0         0         0         0         0         0         0
         0         0         0         0         0         0         0         0
         0         0         0         0         0         0         0         0
         0         0         0         0         0         0         0         0
         0         0         0         0         0         0         0         0
         0         0         0         0         0         0         0         0
         0         0         0         0         0         0         0         0
         0         0         0         0         0         0         0         0
         0         0         0         0         0         0         0         0
         0         0         0         0         0         0         0         0
         0         0         0         0         0         0         0         0
         0         0         0         0         0         0         0         0
         0         0         0         0         0         0         0         0
         0         0         0         0         0         0         0         0
         0         0         0         0         0         0         0         0
         0         0         0         0         0         0         0         0
         0         0         0         0         0         0         0         0
         0         0         0         0         0         0         0         0
         0         0         0         0         0         0         0         0
         0         0         0         0         0         0         0         0
         0         0         0         0         0         0         0         0
         0         0         0         0         0         0         0         0
         0         0         0         0         0         0         0         0
         0         0         0         0         0         0         0         0
         0         0         0         0         0         0         0         0
         0         0         0         0         0         0         0         0
         0         0         0         0         0         0         0         0
         0         0         0         0         0         0         0         0
         0         0         0         0         0         0         0         0
         0         0         0         0         0         0         0         0
         0         0         0         0         0         0         0         0
         0         0         0         0         0         0         0         0
         0         0         0         0         0         0         0         0
         0         0         0         0         0         0         0         0
         0         0         0         0         0         0         0         0
         0         0         0         0         0         0         0         0
         0         0         0         0         0         0         0         0
         0         0         0         0         0         0         0         0
         0         0         0         0         0         0         0         0
         0         0         0         0         0         0         0         0
         0         0         0         0         0         0         0         0
         0         0         0         0         0         0         0         0
         0         0         0         0         0         0         0         0
         0         0         0         0         0         0         0         0
         0         0         0         0         0         0         0         0
         0         0         0         0         0         0         0         0
         0         0         0         0         0         0         0         0
         0         0         0         0         0         0         0         0
         0         0         0         0         0         0         0         0
         0         0         0         0         0         0         0         0
         0         0         0         0         0         0         0         0
         0         0         0         0         0         0         0         0
         0         0         0         0         0         0         0         0
         0         0         0         0         0         0         0         0
         0         0         0         0         0         0         0         0
         0         0         0         0         0         0         0         0
         0         0         0         0         0         0         0         0
         0         0         0         0         0         0         0         0
         0         0         0         0         0         0         0         0
         0         0         0         0         0         0         0         0
         0         0         0         0         0         0         0         0
         0         0         0         0         0         0         0         0
         0         0         0         0         0         0         0         0
         0         0         0         0         0         0         0         0
         0         0         0         0         0         0         0         0
         0         0         0         0         0         0         0         0
         0         0         0         0         0         0         0         0
         0         0         0         0         0         0         0         0
         0         0         0         0         0         0         0         0
         0         0         0         0         0         0         0         0
         0         0         0         0         0         0         0         0
         0         0         0         0         0         0         0         0
         0         0         0         0         0         0         0         0
         0         0         0         0         0         0         0         0
         0         0         0         0         0         0         0         0
         0         0         0         0         0         0         0         0
         0         0         0         0         0         0         0         0
         0         0         0         0         0         0         0         0
         0         0         0         0         0         0         0         0
         0         0         0         0         0         0         0         0
         0         0         0         0         0         0         0         0
         0         0         0         0         0         0         0         0
         0         0         0         0         0         0         0         0
         0         0         0         0         0         0         0         0
         0         0         0         0         0         0         0         0
         0         0         0         0         0         0         0         0
         0         0         0         0         0         0         0         0
         0         0         0         0         0         0         0         0
         0         0         0         0         0         0         0         0
         0         0         0         0         0         0         0         0
         0         0         0         0         0         0         0         0
         0         0         0         0         0         0         0         0
         0         0         0         0         0         0         0         0
         0         0         0         0         0         0         0         0
         0         0         0         0         0         0         0         0
         0         0         0         0         0         0         0         0
         0         0         0         0         0         0         0         0
         0         0         0         0         0         0         0         0
         0         0         0         0         0         0         0         0
         0         0         0         0         0         0         0         0
         0         0         0         0         0         0         0         0
         0         0         0         0         0         0         0         0
         0         0         0         0         0         0         0         0
         0         0         0         0         0         0         0         0
         0         0         0         0         0         0         0         0
         0         0         0         0         0         0         0         0
         0         0         0         0         0         0         0         0
         0         0         0         0         0         0         0         0
         0         0         0         0         0         0         0         0
         0         0         0         0         0         0         0         0
         0         0         0         0         0         0         0         0
         0         0         0         0         0         0         0         0
         0         0         0         0         0         0         0         0
         0         0         0         0         0         0         0         0
         0         0         0         0         0         0         0         0
         0         0         0         0         0         0         0         0
         0         0         0         0         0         0         0         0
         0         0         0         0         0         0         0         0
         0         0         0         0         0         0         0         0
         0         0         0         0         0         0         0         0
         0         0         0         0         0         0         0         0
         0         0         0         0         0         0         0         0
         0         0         0         0         0         0         0         0
         0         0         0         0         0         0         0         0
         0         0         0         0         0         0         0         0
         0         0         0         0         0         0         0         0
         0         0         0         0         0         0         0         0
         0         0         0         0         0         0         0         0
         0         0         0         0         0         0         0         0
         0         0         0         0         0         0         0         0
         0         0         0         0         0         0         0         0
         0         0         0         0         0         0         0         0
         0         0         0         0         0         0         0         0
         0         0         0         0         0         0         0         0
         0         0         0         0         0         0         0         0
         0         0         0         0         0         0         0         0
         0         0         0         0         0         0         0         0
         0         0         0         0         0         0         0         0
         0         0         0         0         0         0         0         0
         0         0         0         0         0         0         0         0
         0         0         0         0         0         0         0         0
         0         0         0         0         0         0         0         0
         0         0         0         0         0         0         0         0
         0         0         0         0         0         0         0         0
         0         0         0         0         0         0         0         0
         0         0         0         0         0         0         0         0
         0         0         0         0         0         0         0         0
         0         0         0         0         0         0         0         0
         0         0         0         0         0         0         0         0
         0         0         0         0         0         0         0         0
         0         0         0         0         0         0         0         0
         0         0         0         0         0         0         0         0
         0         0         0         0         0         0         0         0
         0         0         0         0         0         0         0         0
         0         0         0         0         0         0         0         0
         0         0         0         0         0         0         0         0
         0         0         0         0         0         0         0         0
         0         0         0         0         0         0         0         0
         0         0         0         0         0         0         0         0
         0         0         0         0         0         0         0         0
         0         0         0         0         0         0         0         0
         0         0         0         0         0         0         0         0
         0         0         0         0         0         0         0         0
         0         0         0         0         0         0         0         0
         0         0         0         0         0         0         0         0
         0         0         0         0         0         0         0         0
         0         0         0         0         0         0         0         0
         0         0         0         0         0         0         0         0
         0         0         0         0         0         0         0         0
         0         0         0         0         0         0         0         0
         0         0         0         0         0         0         0         0
         0         0         0         0         0         0         0         0
         0         0         0         0         0         0         0         0
         0         0         0         0         0         0         0         0
         0         0         0         0         0         0         0         0
         0         0         0         0         0         0         0         0
         0         0         0         0         0         0         0         0
         0         0         0         0         0         0         0         0
         0         0         0         0         0         0         0         0
         0         0         0         0         0         0         0         0
         0         0         0         0         0         0         0         0
         0         0         0         0         0         0         0         0
         0         0         0         0         0         0         0         0
         0         0         0         0         0         0         0         0
         0         0         0         0         0         0         0         0
         0         0         0         0         0         0         0         0
         0         0         0         0         0         0         0         0
         0         0         0         0         0         0         0         0
         0         0         0         0         0         0         0         0
         0         0         0         0         0         0         0         0
         0         0         0         0         0         0         0         0
         0         0         0         0         0         0         0         0
         0         0         0         0         0         0         0         0
         0         0         0         0         0         0         0         0
         0         0         0         0         0         0         0         0
         0         0         0         0         0         0         0         0
         0         0         0         0         0         0         0         0
         0         0         0         0         0         0         0         0
         0         0         0         0         0         0         0         0
         0         0         0         0         0         0         0         0
         0         0         0         0         0         0         0         0
         0         0         0         0         0         0         0         0
         0         0         0         0         0         0         0         0
         0         0         0         0         0         0         0         0
         0         0         0         0         0         0         0         0
         0         0         0         0         0         0         0         0
         0         0         0         0         0         0         0         0
         0         0         0         0         0         0         0         0
         0         0         0         0         0         0         0         0
         0         0         0         0         0         0         0         0
         0         0         0         0         0         0         0         0
         0         0         0         0         0         0         0         0
         0         0         0         0         0         0         0         0
         0         0         0         0         0         0         0         0
         0         0         0         0         0         0         0         0
         0         0         0         0         0         0         0         0
         0         0         0         0         0         0         0         0
         0         0         0         0         0         0         0         0
         0         0         0         0         0         0         0         0
         0         0         0         0         0         0         0         0
         0         0         0         0         0         0         0         0
         0         0         0         0         0         0         0         0
         0         0         0         0         0         0         0         0
         0         0         0         0         0         0         0         0
         0         0         0         0         0         0         0         0
         0         0         0         0         0         0         0         0
         0         0         0         0         0         0         0         0
         0         0         0         0         0         0         0         0
         0         0         0         0         0         0         0         0
         0         0         0         0         0         0         0         0
         0         0         0         0         0         0         0         0
         0         0         0         0         0         0         0         0
         0         0         0         0         0         0         0         0
         0         0         0         0         0         0         0         0
         0         0         0         0         0         0         0         0
         0         0         0         0         0         0         0         0
         0         0         0         0         0         0         0         0
         0         0         0         0         0         0         0         0
         0         0         0         0         0         0         0         0
         0         0         0         0         0         0         0         0
         0         0         0         0         0         0         0         0
         0         0         0         0         0         0         0         0
         0         0         0         0         0         0         0         0
         0         0         0         0         0         0         0         0
         0         0         0         0         0         0         0         0
         0         0         0         0         0         0         0         0
         0         0         0         0         0         0         0         0
         0         0         0         0         0         0         0         0
         0         0         0         0         0         0         0         0
         0         0         0         0         0         0         0         0
         0         0         0         0         0         0         0         0
         0         0         0         0         0         0         0         0
         0         0         0         0         0         0         0         0
         0         0         0         0         0         0         0         0
         0         0         0         0         0         0         0         0
         0         0         0         0         0         0         0         0
         0         0         0         0         0         0         0         0
         0         0         0         0         0         0         0         0
         0         0         0         0         0         0         0         0
         0         0         0         0         0         0         0         0
         0         0         0         0         0         0         0         0
         0         0         0         0         0         0         0         0
         0         0         0         0         0         0         0         0
         0         0         0         0         0         0         0         0
         0         0         0         0         0         0         0         0
         0         0         0         0         0         0         0         0
         0         0         0         0         0         0         0         0
         0         0         0         0         0         0         0         0
         0         0         0         0         0         0         0         0
         0         0         0         0         0         0         0         0
         0         0         0         0         0         0         0         0
         0         0         0         0         0         0         0         0
         0         0         0         0         0         0         0         0
         0         0         0         0         0         0         0         0
         0         0         0         0         0         0         0         0
         0         0         0         0         0         0         0         0
         0         0         0         0         0         0         0         0
         0         0         0         0         0         0         0         0
         0         0         0         0         0         0         0         0
         0         0         0         0         0         0         0         0
         0         0         0         0         0         0         0         0
         0         0         0         0         0         0         0         0
         0         0         0         0         0         0         0         0
         0         0         0         0         0         0         0         0
         0         0         0         0         0         0         0         0
         0         0         0         0         0         0         0         0
         0         0         0         0         0         0         0         0
         0         0         0         0         0         0         0         0
         0         0         0         0         0         0         0         0
         0         0         0         0         0         0         0         0
         0         0         0         0         0         0         0         0
         0         0         0         0         0         0         0         0
         0         0         0         0         0         0         0         0
         0         0         0         0         0         0         0         0
         0         0         0         0         0         0         0         0
         0         0         0         0         0         0         0         0
         0         0         0         0         0         0         0         0
         0         0         0         0         0         0         0         0
         0         0         0         0         0         0         0         0
         0         0         0         0         0         0         0         0
         0         0         0         0         0         0         0         0
         0         0         0         0         0         0         0         0
         0         0         0         0         0         0         0         0
         0         0         0         0         0         0         0         0
         0         0         0         0         0         0         0         0
         0         0         0         0         0         0         0         0
         0         0         0         0         0         0         0         0
         0         0         0         0         0         0         0         0
         0         0         0         0         0         0         0         0
         0         0         0         0         0         0         0         0
         0         0         0         0         0         0         0         0
         0         0         0         0         0         0         0         0
         0         0         0         0         0         0         0         0
         0         0         0         0         0         0         0         0
         0         0         0         0         0         0         0         0
         0         0         0         0         0         0         0         0
         0         0         0         0         0         0         0         0
         0         0         0         0         0         0         0         0
         0         0         0         0         0         0         0         0
         0         0         0         0         0         0         0         0
         0         0         0         0         0         0         0         0
         0         0         0         0         0         0         0         0
         0         0         0         0         0         0         0         0
         0         0         0         0         0         0         0         0
         0         0         0         0         0         0         0         0
         0         0         0         0         0         0         0         0
         0         0         0         0         0         0         0         0
         0         0         0         0         0         0         0         0
         0         0         0         0         0         0         0         0
         0         0         0         0         0         0         0         0
         0         0         0         0         0         0         0         0
         0         0         0         0         0         0         0         0
         0         0         0         0         0         0         0         0
         0         0         0         0         0         0         0         0
         0         0         0         0         0         0         0         0
         0         0         0         0         0         0         0         0
         0         0         0         0         0         0         0         0
         0         0         0         0         0         0         0         0
         0         0         0         0         0         0         0         0
         0         0         0         0         0         0         0         0
         0         0         0         0         0         0         0         0
         0         0         0         0         0         0         0         0
         0         0         0         0         0         0         0         0
         0         0         0         0         0         0         0         0
         0         0         0         0         0         0         0         0
         0         0         0         0         0         0         0         0
         0         0         0         0         0         0         0         0
         0         0         0         0         0         0         0         0
         0         0         0         0         0         0         0         0
         0         0         0         0         0         0         0         0
         0         0         0         0         0         0         0         0
         0         0         0         0         0         0         0         0
         0         0         0         0         0         0         0         0
         0         0         0         0         0         0         0         0
         0         0         0         0         0         0         0         0
         0         0         0         0         0         0         0         0
         0         0         0         0         0         0         0         0
         0         0         0         0         0         0         0         0
         0         0         0         0         0         0         0         0
         0         0         0         0         0         0         0         0
         0         0         0         0         0         0         0         0
         0         0         0         0         0         0         0         0
         0         0         0         0         0         0         0         0
         0         0         0         0         0         0         0         0
         0         0         0         0         0         0         0         0
         0         0         0         0         0         0         0         0
         0         0         0         0         0         0         0         0
         0         0         0         0         0         0         0         0
         0         0         0         0         0         0         0         0
         0         0         0         0         0         0         0         0
         0         0         0         0         0         0         0         0
         0         0         0         0         0         0         0         0
         0         0         0         0         0         0         0         0
         0         0         0         0         0         0         0         0
         0         0         0         0         0         0         0         0
         0         0         0         0         0         0         0         0
         0         0         0         0         0         0         0         0
         0         0         0         0         0         0         0         0
         0         0         0         0         0         0         0         0
         0         0         0         0         0         0         0         0
         0         0         0         0         0         0         0         0
         0         0         0         0         0         0         0         0
         0         0         0         0         0         0         0         0
         0         0         0         0         0         0         0         0
         0         0         0         0         0         0         0         0
         0         0         0         0         0         0         0         0
         0         0         0         0         0         0         0         0
         0         0         0         0         0         0         0         0
         0         0         0         0         0         0         0         0
         0         0         0         0         0         0         0         0
         0         0         0         0         0         0         0         0
         0         0         0         0         0         0         0         0
         0         0         0         0         0         0         0         0
         0         0         0         0         0         0         0         0
         0         0         0         0         0         0         0         0
         0         0         0         0         0         0         0         0
         0         0         0         0         0         0         0         0
         0         0         0         0         0         0         0         0
         0         0         0         0         0         0         0         0
         0         0         0         0         0         0         0         0
         0         0         0         0         0         0         0         0
         0         0         0         0         0         0         0         0
         0         0         0         0         0         0         0         0
         0         0         0         0         0         0         0         0
         0         0         0         0         0         0         0         0
         0         0         0         0         0         0         0         0
         0         0         0         0         0         0         0         0
         0         0         0         0         0         0         0         0
         0         0         0         0         0         0         0         0
         0         0         0         0         0         0         0         0
         0         0         0         0         0         0         0         0
         0         0         0         0         0         0         0         0
         0         0         0         0         0         0         0         0
         0         0         0         0         0         0         0         0
         0         0         0         0         0         0         0         0
         0         0         0         0         0         0         0         0
         0         0         0         0         0         0         0         0
         0         0         0         0         0         0         0         0
         0         0         0         0         0         0         0         0
         0         0         0         0         0         0         0         0
         0         0         0         0         0         0         0         0
         0         0         0         0         0         0         0         0
         0         0         0         0         0         0         0         0
         0         0         0         0         0         0         0         0
         0         0         0         0         0         0         0         0
         0         0         0         0         0         0         0         0
         0         0         0         0         0         0         0         0
         0         0         0         0         0         0         0         0
         0         0         0         0         0         0         0         0
         0         0         0         0         0         0         0         0
         0         0         0         0         0         0         0         0
         0         0         0         0         0         0         0         0
         0         0         0         0         0         0         0         0
         0         0         0         0         0         0         0         0
         0         0         0         0         0         0         0         0
         0         0         0         0         0         0         0         0
         0         0         0         0         0         0         0         0
         0         0         0         0         0         0         0         0
         0         0         0         0         0         0         0         0
         0         0         0         0         0         0         0         0
         0         0         0         0         0         0         0         0
         0         0         0         0         0         0         0         0
         0         0         0         0         0         0         0         0
         0         0         0         0         0         0         0         0
         0         0         0         0         0         0         0         0
         0         0         0         0         0         0         0         0
         0         0         0         0         0         0         0         0
         0         0         0         0         0         0         0         0
         0         0         0         0         0         0         0         0
         0         0         0         0         0         0         0         0
         0         0         0         0         0         0         0         0
         0         0         0         0         0         0         0         0
         0         0         0         0         0         0         0         0
         0         0         0         0         0         0         0         0
         0         0         0         0         0         0         0         0
         0         0         0         0         0         0         0         0
         0         0         0         0         0         0         0         0
         0         0         0         0         0         0         0         0
         0         0         0         0         0         0         0         0
         0         0         0         0         0         0         0         0
         0         0         0         0         0         0         0         0
         0         0         0         0         0         0         0         0
         0         0         0         0         0         0         0         0
         0         0         0         0         0         0         0         0
         0         0         0         0         0         0         0         0
         0         0         0         0         0         0         0         0
         0         0         0         0         0         0         0         0
         0         0         0         0         0         0         0         0
         0         0         0         0         0         0         0         0
         0         0         0         0         0         0         0         0
         0         0         0         0         0         0         0         0
         0         0         0         0         0         0         0         0
         0         0         0         0         0         0         0         0
         0         0         0         0         0         0         0         0
         0         0         0         0         0         0         0         0
         0         0         0         0         0         0         0         0
         0         0         0         0         0         0         0         0
         0         0         0         0         0         0         0         0
         0         0         0         0         0         0         0         0
         0         0         0         0         0         0         0         0
         0         0         0         0         0         0         0         0
         0         0         0         0         0         0         0         0
         0         0         0         0         0         0         0         0
         0         0         0         0         0         0         0         0
         0         0         0         0         0         0         0         0
         0         0         0         0         0         0         0         0
         0         0         0         0         0         0         0         0
         0         0         0         0         0         0         0         0
         0         0         0         0         0         0         0         0
         0         0         0         0         0         0         0         0
         0         0         0         0         0         0         0         0
         0         0         0         0         0         0         0         0
         0         0         0         0         0         0         0         0
         0         0         0         0         0         0         0         0
         0         0         0         0         0         0         0         0
         0         0         0         0         0         0         0         0
         0         0         0         0         0         0         0         0
         0         0         0         0         0         0         0         0
         0         0         0         0         0         0         0         0
         0         0         0         0         0         0         0         0
         0         0         0         0         0         0         0         0
         0         0         0         0         0         0         0         0
         0         0         0         0         0         0         0         0
         0         0         0         0         0         0         0         0
         0         0         0         0         0         0         0         0
         0         0         0         0         0         0         0         0
         0         0         0         0         0         0         0         0
         0         0         0         0         0         0         0         0
         0         0         0         0         0         0         0         0
         0         0         0         0         0         0         0         0
         0         0         0         0         0         0         0         0
         0         0         0         0         0         0         0         0
         0         0         0         0         0         0         0         0
         0         0         0         0         0         0         0         0
         0         0         0         0         0         0         0         0
         0         0         0         0         0         0         0         0
         0         0         0         0         0         0         0         0
         0         0         0         0         0         0         0         0
         0         0         0         0         0         0         0         0
         0         0         0         0         0         0         0         0
         0         0         0         0         0         0         0         0
         0         0         0         0         0         0         0         0
         0         0         0         0         0         0         0         0
         0         0         0         0         0         0         0         0
         0         0         0         0         0         0         0         0
         0         0         0         0         0         0         0         0
         0         0         0         0         0         0         0         0
         0         0         0         0         0         0         0         0
         0         0         0         0         0         0         0         0
         0         0         0         0         0         0         0         0
         0         0         0         0         0         0         0         0
         0         0         0         0         0         0         0         0
         0         0         0         0         0         0         0         0
         0         0         0         0         0         0         0         0
         0         0         0         0         0         0         0         0
         0         0         0         0         0         0         0         0
         0         0         0         0         0         0         0         0
         0         0         0         0         0         0         0         0
         0         0         0         0         0         0         0         0
         0         0         0         0         0         0         0         0
         0         0         0         0         0         0         0         0
         0         0         0         0         0         0         0         0
         0         0         0         0         0         0         0         0
         0         0         0         0         0         0         0         0
         0         0         0         0         0         0         0         0
         0         0         0         0         0         0         0         0
         0         0         0         0         0         0         0         0
         0         0         0         0         0         0         0         0
         0         0         0         0         0         0         0         0
         0         0         0         0         0         0         0         0
         0         0         0         0         0         0         0         0
         0         0         0         0         0         0         0         0
         0         0         0         0         0         0         0         0
         0         0         0         0         0         0         0         0
         0         0         0         0         0         0         0         0
         0         0         0         0         0         0         0         0
         0         0         0         0         0         0         0         0
         0         0         0         0         0         0         0         0
         0         0         0         0         0         0         0         0
         0         0         0         0         0         0         0         0
         0         0         0         0         0         0         0         0
         0         0         0         0         0         0         0         0
         0         0         0         0         0         0         0         0
         0         0         0         0         0         0         0         0
         0         0         0         0         0         0         0         0
         0         0         0         0         0         0         0         0
         0         0         0         0         0         0         0         0
         0         0         0         0         0         0         0         0
         0         0         0         0         0         0         0         0
         0         0         0         0         0         0         0         0
         0         0         0         0         0         0         0         0
         0         0         0         0         0         0         0         0
         0         0         0         0         0         0         0         0
         0         0         0         0         0         0         0         0
         0         0         0         0         0         0         0         0
         0         0         0         0         0         0         0         0
         0         0         0         0         0         0         0         0
         0         0         0         0         0         0         0         0
         0         0         0         0         0         0         0         0
         0         0         0         0         0         0         0         0
         0         0         0         0         0         0         0         0
         0         0         0         0         0         0         0         0
         0         0         0         0         0         0         0         0
         0         0         0         0         0         0         0         0
         0         0         0         0         0         0         0         0
         0         0         0         0         0         0         0         0
         0         0         0         0         0         0         0         0
         0         0         0         0         0         0         0         0
         0         0         0         0         0         0         0         0
         0         0         0         0         0         0         0         0
         0         0         0         0         0         0         0         0
         0         0         0         0         0         0         0         0
         0         0         0         0         0         0         0         0
         0         0         0         0         0         0         0         0
         0         0         0         0         0         0         0         0
         0         0         0         0         0         0         0         0
         0         0         0         0         0         0         0         0
         0         0         0         0         0         0         0         0
         0         0         0         0         0         0         0         0
         0         0         0         0         0         0         0         0
         0         0         0         0         0         0         0         0
         0         0         0         0         0         0         0         0
         0         0         0         0         0         0         0         0
         0         0         0         0         0         0         0         0
         0         0         0         0         0         0         0         0
         0         0         0         0         0         0         0         0
         0         0         0         0         0         0         0         0
         0         0         0         0         0         0         0         0
         0         0         0         0         0         0         0         0
         0         0         0         0         0         0         0         0
         0         0         0         0         0         0         0         0
         0         0         0         0         0         0         0         0
         0         0         0         0         0         0         0         0
         0         0         0         0         0         0         0         0
         0         0         0         0         0         0         0         0
         0         0         0         0         0         0         0         0
         0         0         0         0         0         0         0         0
         0         0         0         0         0         0         0         0
         0         0         0         0         0         0         0         0
         0         0         0         0         0         0         0         0
         0         0         0         0         0         0         0         0
         0         0         0         0         0         0         0         0
         0         0         0         0         0         0         0         0
         0         0         0         0         0         0         0         0
         0         0         0         0         0         0         0         0
         0         0         0         0         0         0         0         0
         0         0         0         0         0         0         0         0
         0         0         0         0         0         0         0         0
         0         0         0         0         0         0         0         0
         0         0         0         0         0         0         0         0
         0         0         0         0         0         0         0         0
         0         0         0         0         0         0         0         0
         0         0         0         0         0         0         0         0
         0         0         0         0         0         0         0         0
         0         0         0         0         0         0         0         0
         0         0         0         0         0         0         0         0
         0         0         0         0         0         0         0         0
         0         0         0         0         0         0         0         0
         0         0         0         0         0         0         0         0
         0         0         0         0         0         0         0         0
         0         0         0         0         0         0         0         0
         0         0         0         0         0         0         0         0
         0         0         0         0         0         0         0         0
         0         0         0         0         0         0         0         0
         0         0         0         0         0         0         0         0
         0         0         0         0         0         0         0         0
         0         0         0         0         0         0         0         0
         0         0         0         0         0         0         0         0
         0         0         0         0         0         0         0         0
         0         0         0         0         0         0         0         0
         0         0         0         0         0         0         0         0
         0         0         0         0         0         0         0         0
         0         0         0         0         0         0         0         0
         0         0         0         0         0         0         0         0
         0         0         0         0         0         0         0         0
         0         0         0         0         0         0         0         0
         0         0         0         0         0         0         0         0
         0         0         0         0         0         0         0         0
         0         0         0         0         0         0         0         0
         0         0         0         0         0         0         0         0
         0         0         0         0         0         0         0         0
         0         0         0         0         0         0         0         0
         0         0         0         0         0         0         0         0
         0         0         0         0         0         0         0         0
         0         0         0         0         0         0         0         0
         0         0         0         0         0         0         0         0
         0         0         0         0         0         0         0         0
         0         0         0         0         0         0         0         0
         0         0         0         0         0         0         0         0
         0         0         0         0         0         0         0         0
         0         0         0         0         0         0         0         0
         0         0         0         0         0         0         0         0
         0         0         0         0         0         0         0         0
         0         0         0         0         0         0         0         0
         0         0         0         0         0         0         0         0
         0         0         0         0         0         0         0         0
         0         0         0         0         0         0         0         0
         0         0         0         0         0         0         0         0
         0         0         0         0         0         0         0         0
         0         0         0         0         0         0         0         0
         0         0         0         0         0         0         0         0
         0         0         0         0         0         0         0         0
         0         0         0         0         0         0         0         0
         0         0         0         0         0         0         0         0
         0         0         0         0         0         0         0         0
         0         0         0         0         0         0         0         0
         0         0         0         0         0         0         0         0
         0         0         0         0         0         0         0         0
         0         0         0         0         0         0         0         0
         0         0         0         0         0         0         0         0
         0         0         0         0         0         0         0         0
         0         0         0         0         0         0         0         0
         0         0         0         0         0         0         0         0
         0         0         0         0         0         0         0         0
         0         0         0         0         0         0         0         0
         0         0         0         0         0         0         0         0
         0         0         0         0         0         0         0         0
         0         0         0         0         0         0         0         0
         0         0         0         0         0         0         0         0
         0         0         0         0         0         0         0         0
         0         0         0         0         0         0         0         0
         0         0         0         0         0         0         0         0
         0         0         0         0         0         0         0         0
         0         0         0         0         0         0         0         0
         0         0         0         0         0         0         0         0
         0         0         0         0         0         0         0         0
         0         0         0         0         0         0         0         0
         0         0         0         0         0         0         0         0
         0         0         0         0         0         0         0         0
         0         0         0         0         0         0         0         0
         0         0         0         0         0         0         0         0
         0         0         0         0         0         0         0         0
         0         0         0         0         0         0         0         0
         0         0         0         0         0         0         0         0
         0         0         0         0         0         0         0         0
         0         0         0         0         0         0         0         0
         0         0         0         0         0         0         0         0
         0         0         0         0         0         0         0         0
         0         0         0         0         0         0         0         0
         0         0         0         0         0         0         0         0
         0         0         0         0         0         0         0         0
         0         0         0         0         0         0         0         0
         0         0         0         0         0         0         0         0
         0         0         0         0         0         0         0         0
         0         0         0         0         0         0         0         0
         0         0         0         0         0         0         0         0
         0         0         0         0         0         0         0         0
         0         0         0         0         0         0         0         0
         0         0         0         0         0         0         0         0
         0         0         0         0         0         0         0         0
         0         0         0         0         0         0         0         0
         0         0         0         0         0         0         0         0
         0         0         0         0         0         0         0         0
         0         0         0         0         0         0         0         0
         0         0         0         0         0         0         0         0
         0         0         0         0         0         0         0         0
         0         0         0         0         0         0         0         0
         0         0         0         0         0         0         0         0
         0         0         0         0         0         0         0         0
         0         0         0         0         0         0         0         0
         0         0         0         0         0         0         0         0
         0         0         0         0         0         0         0         0
         0         0         0         0         0         0         0         0
         0         0         0         0         0         0         0         0
         0         0         0         0         0         0         0         0
         0         0         0         0         0         0         0         0
         0         0         0         0         0         0         0         0
         0         0         0         0         0         0         0         0
         0         0         0         0         0         0         0         0
         0         0         0         0         0         0         0         0
         0         0         0         0         0         0         0         0
         0         0         0         0         0         0         0         0
         0         0         0         0         0         0         0         0
         0         0         0         0         0         0         0         0
         0         0         0         0         0         0         0         0
         0         0         0         0         0         0         0         0
         0         0         0         0         0         0         0         0
         0         0         0         0         0         0         0         0
         0         0         0         0         0         0         0         0
         0         0         0         0         0         0         0         0
         0         0         0         0         0         0         0         0
         0         0         0         0         0         0         0         0
         0         0         0         0         0         0         0         0
         0         0         0         0         0         0         0         0
         0         0         0         0         0         0         0         0
         0         0         0         0         0         0         0         0
         0         0         0         0         0         0         0         0
         0         0         0         0         0         0         0         0
         0         0         0         0         0         0         0         0
         0         0         0         0         0         0         0         0
         0         0         0         0         0         0         0         0
         0         0         0         0         0         0         0         0
         0         0         0         0         0         0         0         0
         0         0         0         0         0         0         0         0
         0         0         0         0         0         0         0         0
         0         0         0         0         0         0         0         0
         0         0         0         0         0         0         0         0
         0         0         0         0         0         0         0         0
         0         0         0         0         0         0         0         0
         0         0         0         0         0         0         0         0
         0         0         0         0         0         0         0         0
         0         0         0         0         0         0         0         0
         0         0         0         0         0         0         0         0
         0         0         0         0         0         0         0         0
         0         0         0         0         0         0         0         0
         0         0         0         0         0         0         0         0
         0         0         0         0         0         0         0         0
         0         0         0         0         0         0         0         0
         0         0         0         0         0         0         0         0
         0         0         0         0         0         0         0         0
         0         0         0         0         0         0         0         0
         0         0         0         0         0         0         0         0
         0         0         0         0         0         0         0         0
         0         0         0         0         0         0         0         0
         0         0         0         0         0         0         0         0
         0         0         0         0         0         0         0         0
         0         0         0         0         0         0         0         0
         0         0         0         0         0         0         0         0
         0         0         0         0         0         0         0         0
         0         0         0         0         0         0         0         0
         0         0         0         0         0         0         0         0
         0         0         0         0         0         0         0         0
         0         0         0         0         0         0         0         0
         0         0         0         0         0         0         0         0
         0         0         0         0         0         0         0         0
         0         0         0         0         0         0         0         0
         0         0         0         0         0         0         0         0
         0         0         0         0         0         0         0         0
         0         0         0         0         0         0         0         0
         0         0         0         0         0         0         0         0
         0         0         0         0         0         0         0         0
         0         0         0         0         0         0         0         0
         0         0         0         0         0         0         0         0
         0         0         0         0         0         0         0         0
         0         0         0         0         0         0         0         0
         0         0         0         0         0         0         0         0
         0         0         0         0         0         0         0         0
         0         0         0         0         0         0         0         0
         0         0         0         0         0         0         0         0
         0         0         0         0         0         0         0         0
         0         0         0         0         0         0         0         0
         0         0         0         0         0         0         0         0
         0         0         0         0         0         0         0         0
         0         0         0         0         0         0         0         0
         0         0         0         0         0         0         0         0
         0         0         0         0         0         0         0         0
         0         0         0         0         0         0         0         0
         0         0         0         0         0         0         0         0
         0         0         0         0         0         0         0         0
         0         0         0         0         0         0         0         0
         0         0         0         0         0         0         0         0
         0         0         0         0         0         0         0         0
         0         0         0         0         0         0         0         0
         0         0         0         0         0         0         0         0
         0         0         0         0         0         0         0         0
         0         0         0         0         0         0         0         0
         0         0         0         0         0         0         0         0
         0         0         0         0         0         0         0         0
         0         0         0         0         0         0         0         0
         0         0         0         0         0         0         0         0
         0         0         0         0         0         0         0         0
         0         0         0         0         0         0         0         0
         0         0         0         0         0         0         0         0
         0         0         0         0         0         0         0         0
         0         0         0         0         0         0         0         0
         0         0         0         0         0         0         0         0
         0         0         0         0         0         0         0         0
         0         0         0         0         0         0         0         0
         0         0         0         0         0         0         0         0
         0         0         0         0         0         0         0         0
         0         0         0         0         0         0         0         0
         0         0         0         0         0         0         0         0
         0         0         0         0         0         0         0         0
         0         0         0         0         0         0         0         0
         0         0         0         0         0         0         0         0
         0         0         0         0         0         0         0         0
         0         0         0         0         0         0         0         0
         0         0         0         0         0         0         0         0
         0         0         0         0         0         0         0         0
         0         0         0         0         0         0         0         0
         0         0         0         0         0         0         0         0
         0         0         0         0         0         0         0         0
         0         0         0         0         0         0         0         0
         0         0         0         0         0         0         0         0
         0         0         0         0         0         0         0         0
         0         0         0         0         0         0         0         0
         0         0         0         0         0         0         0         0
         0         0         0         0         0         0         0         0
         0         0         0         0         0         0         0         0
         0         0         0         0         0         0         0         0
         0         0         0         0         0         0         0         0
         0         0         0         0         0         0         0         0
         0         0         0         0         0         0         0         0
         0         0         0         0         0         0         0         0
         0         0         0         0         0         0         0         0
         0         0         0         0         0         0         0         0
         0         0         0         0         0         0         0         0
         0         0         0         0         0         0         0         0
         0         0         0         0         0         0         0         0
         0         0         0         0         0         0         0         0
         0         0         0         0         0         0         0         0
         0         0         0         0         0         0         0         0
         0         0         0         0         0         0         0         0
         0         0         0         0         0         0         0         0
         0         0         0         0         0         0         0         0
         0         0         0         0         0         0         0         0
         0         0         0         0         0         0         0         0
         0         0         0         0         0         0         0         0
         0         0         0         0         0         0         0         0
         0         0         0         0         0         0         0         0
         0         0         0         0         0         0         0         0
         0         0         0         0         0         0         0         0
         0         0         0         0         0         0         0         0
         0         0         0         0         0         0         0         0
         0         0         0         0         0         0         0         0
         0         0         0         0         0         0         0         0
         0         0         0         0         0         0         0         0
         0         0         0         0         0         0         0         0
         0         0         0         0         0         0         0         0
         0         0         0         0         0         0         0         0
         0         0         0         0         0         0         0         0
         0         0         0         0         0         0         0         0
         0         0         0         0         0         0         0         0
         0         0         0         0         0         0         0         0
         0         0         0         0         0         0         0         0
         0         0         0         0         0         0         0         0
         0         0         0         0         0         0         0         0
         0         0         0         0         0         0         0         0
         0         0         0         0         0         0         0         0
         0         0         0         0         0         0         0         0
         0         0         0         0         0         0         0         0
         0         0         0         0         0         0         0         0
         0         0         0         0         0         0         0         0
         0         0         0         0         0         0         0         0
         0         0         0         0         0         0         0         0
         0         0         0         0         0         0         0         0
         0         0         0         0         0         0         0         0
         0         0         0         0         0         0         0         0
         0         0         0         0         0         0         0         0
         0         0         0         0         0         0         0         0
         0         0         0         0         0         0         0         0
         0         0         0         0         0         0         0         0
         0         0         0         0         0         0         0         0
         0         0         0         0         0         0         0         0
         0         0         0         0         0         0         0         0
         0         0         0         0         0         0         0         0
         0         0         0         0         0         0         0         0
         0         0         0         0         0         0         0         0
         0         0         0         0         0         0         0         0
         0         0         0         0         0         0         0         0
         0         0         0         0         0         0         0         0
         0         0         0         0         0         0         0         0
         0         0         0         0         0         0         0         0
         0         0         0         0         0         0         0         0
         0         0         0         0         0         0         0         0
         0         0         0         0         0         0         0         0
         0         0         0         0         0         0         0         0
         0         0         0         0         0         0         0         0
         0         0         0         0         0         0         0         0
         0         0         0         0         0         0         0         0
         0         0         0         0         0         0         0         0
         0         0         0         0         0         0         0         0
         0         0         0         0         0         0         0         0
         0         0         0         0         0         0         0         0
         0         0         0         0         0         0         0         0
         0         0         0         0         0         0         0         0
         0         0         0         0         0         0         0         0
         0         0         0         0         0         0         0         0
         0         0         0         0         0         0         0         0
         0         0         0         0         0         0         0         0
         0         0         0         0         0         0         0         0
         0         0         0         0         0         0         0         0
         0         0         0         0         0         0         0         0
         0         0         0         0         0         0         0         0
         0         0         0         0         0         0         0         0
         0         0         0         0         0         0         0         0
         0         0         0         0         0         0         0         0
         0         0         0         0         0         0         0         0
         0         0         0         0         0         0         0         0
         0         0         0         0         0         0         0         0
         0         0         0         0         0         0         0         0
         0         0         0         0         0         0         0         0
         0         0         0         0         0         0         0         0
         0         0         0         0         0         0         0         0
         0         0         0         0         0         0         0         0
         0         0         0         0         0         0         0         0
         0         0         0         0         0         0         0         0
         0         0         0         0         0         0         0         0
         0         0         0         0         0         0         0         0
         0         0         0         0         0         0         0         0
         0         0         0         0         0         0         0         0
         0         0         0         0         0         0         0         0
         0         0         0         0         0         0         0         0
         0         0         0         0         0         0         0         0
         0         0         0         0         0         0         0         0
         0         0         0         0         0         0         0         0
         0         0         0         0         0         0         0         0
         0         0         0         0         0         0         0         0
         0         0         0         0         0         0         0         0
         0         0         0         0         0         0         0         0
         0         0         0         0         0         0         0         0
         0         0         0         0         0         0         0         0
         0         0         0         0         0         0         0         0
         0         0         0         0         0         0         0         0
         0         0         0         0         0         0         0         0
         0         0         0         0         0         0         0         0
         0         0         0         0         0         0         0         0
         0         0         0         0         0         0         0         0
         0         0         0         0         0         0         0         0
         0         0         0         0         0         0         0         0
         0         0         0         0         0         0         0         0
         0         0         0         0         0         0         0         0
         0         0         0         0         0         0         0         0
         0         0         0         0         0         0         0         0
         0         0         0         0         0         0         0         0
         0         0         0         0         0         0         0         0
         0         0         0         0         0         0         0         0
         0         0         0         0         0         0         0         0
         0         0         0         0         0         0         0         0
         0         0         0         0         0         0         0         0
         0         0         0         0         0         0         0         0
         0         0         0         0         0         0         0         0
         0         0         0         0         0         0         0         0
         0         0         0         0         0         0         0         0
         0         0         0         0         0         0         0         0
         0         0         0         0         0         0         0         0
         0         0         0         0         0         0         0         0
         0         0         0         0         0         0         0         0
         0         0         0         0         0         0         0         0
         0         0         0         0         0         0         0         0
         0         0         0         0         0         0         0         0
         0         0         0         0         0         0         0         0
         0         0         0         0         0         0         0         0
         0         0         0         0         0         0         0         0
         0         0         0         0         0         0         0         0
         0         0         0         0         0         0         0         0
         0         0         0         0         0         0         0         0
         0         0         0         0         0         0         0         0
         0         0         0         0         0         0         0         0
         0         0         0         0         0         0         0         0
         0         0         0         0         0         0         0         0
         0         0         0         0         0         0         0         0
         0         0         0         0         0         0         0         0
         0         0         0         0         0         0         0         0
         0         0         0         0         0         0         0         0
         0         0         0         0         0         0         0         0
         0         0         0         0         0         0         0         0
         0         0         0         0         0         0         0         0
         0         0         0         0         0         0         0         0
         0         0         0         0         0         0         0         0
         0         0         0         0         0         0         0         0
         0         0         0         0         0         0         0         0
         0         0         0         0         0         0         0         0
         0         0         0         0         0         0         0         0
         0         0         0         0         0         0         0         0
         0         0         0         0         0         0         0         0
         0         0         0         0         0         0         0         0
         0         0         0         0         0         0         0         0
         0         0         0         0         0         0         0         0
         0         0         0         0         0         0         0         0
         0         0         0         0         0         0         0         0
         0         0         0         0         0         0         0         0
         0         0         0         0         0         0         0         0
         0         0         0         0         0         0         0         0
         0         0         0         0         0         0         0         0
         0         0         0         0         0         0         0         0
         0         0         0         0         0         0         0         0
         0         0         0         0         0         0         0         0
         0         0         0         0         0         0         0         0
         0         0         0         0         0         0         0         0
         0         0         0         0         0         0         0         0
         0         0         0         0         0         0         0         0
         0         0         0         0         0         0         0         0
         0         0         0         0         0         0         0         0
         0         0         0         0         0         0         0         0
         0         0         0         0         0         0         0         0
         0         0         0         0         0         0         0         0
         0         0         0         0         0         0         0         0
         0         0         0         0         0         0         0         0
         0         0         0         0         0         0         0         0
         0         0         0         0         0         0         0         0
         0         0         0         0         0         0         0         0
         0         0         0         0         0         0         0         0
         0         0         0         0         0         0         0         0
         0         0         0         0         0         0         0         0
         0         0         0         0         0         0         0         0
         0         0         0         0         0         0         0         0
         0         0         0         0         0         0         0         0
         0         0         0         0         0         0         0         0
         0         0         0         0         0         0         0         0
         0         0         0         0         0         0         0         0
         0         0         0         0         0         0         0         0
         0         0         0         0         0         0         0         0
         0         0         0         0         0         0         0         0
         0         0         0         0         0         0         0         0
         0         0         0         0         0         0         0         0
         0         0         0         0         0         0         0         0
         0         0         0         0         0         0         0         0
         0         0         0         0         0         0         0         0
         0         0         0         0         0         0         0         0
         0         0         0         0         0         0         0         0
         0         0         0         0         0         0         0         0
         0         0         0         0         0         0         0         0
         0         0         0         0         0         0         0         0
         0         0         0         0         0         0         0         0
         0         0         0         0         0         0         0         0
         0         0         0         0         0         0         0         0
         0         0         0         0         0         0         0         0
         0         0         0         0         0         0         0         0
         0         0         0         0         0         0         0         0
         0         0         0         0         0         0         0         0
         0         0         0         0         0         0         0         0
         0         0         0         0         0         0         0         0
         0         0         0         0

      8100         0 !NGRP NST2
         0         2         0        16         2         0        27         1         0
        35         1         0        44         1         0        47         1         0
        50         1         0        53         1         0        56         1         0
        59         1         0        62         1         0        64         1         0
        66         1         0        69         1         0        72         1         0
        75         1         0        78         1         0        81         1         0
        84         1         0        87         1         0        91         1         0
        94         1         0        97         1         0       100         1         0
       103         1         0       106         1         0       109         1         0
       112         1         0       115         1         0       118         1         0
       121         1         0       124         1         0       127         1         0
       130         1         0       134         2         0       150         2         0
       161         1         0       169         1         0       178         1         0
       181         1         0       184         1         0       187         1         0
       190         1         0       193         1         0       196         1         0
       198         1         0       200         1         0       203         1         0
       206         1         0       209         1         0       212         1         0
       215         1         0       218         1         0       221         1         0
       225         1         0       228         1         0       231         1         0
       234         1         0       237         1         0       240         1         0
       243         1         0       246         1         0       249         1         0
       252         1         0       255         1         0       258         1         0
       261         1         0       264         1         0       268         2         0
       284         2         0       295         1         0       303         1         0
       312         1         0       315         1         0       318         1         0
       321         1         0       324         1         0       327         1         0
       330         1         0       332         1         0       334         1         0
       337         1         0       340         1         0       343         1         0
       346         1         0       349         1         0       352         1         0
       355         1         0       359         1         0       362         1         0
       365         1         0       368         1         0       371         1         0
       374         1         0       377         1         0       380         1         0
       383         1         0       386         1         0       389         1         0
       392         1         0       395         1         0       398         1         0
       402         2         0       418         2         0       429         1         0
       437         1         0       446         1         0       449         1         0
       452         1         0       455         1         0       458         1         0
       461         1         0       464         1         0       466         1         0
       468         1         0       471         1         0       474         1         0
       477         1         0       480         1         0       483         1         0
       486         1         0       489         1         0       493         1         0
       496         1         0       499         1         0       502         1         0
       505         1         0       508         1         0       511         1         0
       514         1         0       517         1         0       520         1         0
       523         1         0       526         1         0       529         1         0
       532         1         0       536         2         0       552         2         0
       563         1         0       571         1         0       580         1         0
       583         1         0       586         1         0       589         1         0
       592         1         0       595         1         0       598         1         0
       600         1         0       602         1         0       605         1         0
       608         1         0       611         1         0       614         1         0
       617         1         0       620         1         0       623         1         0
       627         1         0       630         1         0       633         1         0
       636         1         0       639         1         0       642         1         0
       645         1         0       648         1         0       651         1         0
       654         1         0       657         1         0       660         1         0
       663         1         0       666         1         0       670         2         0
       676         2         0       679         2         0       690         1         0
       698         1         0       707         1         0       710         1         0
       713         1         0       716         1         0       719         1         0
       722         1         0       725         1         0       727         1         0
       729         1         0       732         1         0       735         1         0
       738         1         0       741         1         0       744         1         0
       747         1         0       750         1         0       754         1         0
       757         1         0       760         1         0       763         1         0
       766         1         0       769         1         0       772         1         0
       775         1         0       778         1         0       781         1         0
       784         1         0       787         1         0       790         1         0
       793         1         0       797         2         0       813         2         0
       824         1         0       832         1         0       841         1         0
       844         1         0       847         1         0       850         1         0
       853         1         0       856         1         0       859         1         0
       861         1         0       863         1         0       866         1         0
       869         1         0       872         1         0       875         1         0
       878         1         0       881         1         0       884         1         0
       888         1         0       891         1         0       894         1         0
       897         1         0       900         1         0       903         1         0
       906         1         0       909         1         0       912         1         0
       915         1         0       918         1         0       921         1         0
       924         1         0       927         1         0       931         2         0
       947         2         0       958         1         0       966         1         0
       975         1         0       978         1         0       981         1         0
       984         1         0       987         1         0       990         1         0
       993         1         0       995         1         0       997         1         0
      1000         1         0      1003         1         0      1006         1         0
      1009         1         0      1012         1         0      1015         1         0
      1018         1         0      1022         1         0      1025         1         0
      1028         1         0      1031         1         0      1034         1         0
      1037         1         0      1040         1         0      1043         1         0
      1046         1         0      1049         1         0      1052         1         0
      1055         1         0      1058         1         0      1061         1         0
      1065         2         0      1071         2         0      1074         2         0
      1085         1         0      1093         1         0      1102         1         0
      1105         1         0      1108         1         0      1111         1         0
      1114         1         0      1117         1         0      1120         1         0
      1122         1         0      1124         1         0      1127         1         0
      1130         1         0      1133         1         0      1136         1         0
      1139         1         0      1142         1         0      1145         1         0
      1149         1         0      1152         1         0      1155         1         0
      1158         1         0      1161         1         0      1164         1         0
      1167         1         0      1170         1         0      1173         1         0
      1176         1         0      1179         1         0      1182         1         0
      1185         1         0      1188         1         0      1192         2         0
      1208         2         0      1219         1         0      1227         1         0
      1236         1         0      1239         1         0      1242         1         0
      1245         1         0      1248         1         0      1251         1         0
      1254         1         0      1256         1         0      1258         1         0
      1261         1         0      1264         1         0      1267         1         0
      1270         1         0      1273         1         0      1276         1         0
      1279         1         0      1283         1         0      1286         1         0
      1289         1         0      1292         1         0      1295         1         0
      1298         1         0      1301         1         0      1304         1         0
      1307         1         0      1310         1         0      1313         1         0
      1316         1         0      1319         1         0      1322         1         0
      1326         2         0      1332         2         0      1335         2         0
      1346         1         0      1354         1         0      1363         1         0
      1366         1         0      1369         1         0      1372         1         0
      1375         1         0      1378         1         0      1381         1         0
      1383         1         0      1385         1         0      1388         1         0
      1391         1         0      1394         1         0      1397         1         0
      1400         1         0      1403         1         0      1406         1         0
      1410         1         0      1413         1         0      1416         1         0
      1419         1         0      1422         1         0      1425         1         0
      1428         1         0      1431         1         0      1434         1         0
      1437         1         0      1440         1         0      1443         1         0
      1446         1         0      1449         1         0      1453         2         0
      1459         2         0      1462         2         0      1473         1         0
      1481         1         0      1490         1         0      1493         1         0
      1496         1         0      1499         1         0      1502         1         0
      1505         1         0      1508         1         0      1510         1         0
      1512         1         0      1515         1         0      1518         1         0
      1521         1         0      1524         1         0      1527         1         0
      1530         1         0      1533         1         0      1537         1         0
      1540         1         0      1543         1         0      1546         1         0
      1549         1         0      1552         1         0      1555         1         0
      1558         1         0      1561         1         0      1564         1         0
      1567         1         0      1570         1         0      1573         1         0
      1576         1         0      1580         2         0      1596         2         0
      1607         1         0      1615         1         0      1624         1         0
      1627         1         0      1630         1         0      1633         1         0
      1636         1         0      1639         1         0      1642         1         0
      1644         1         0      1646         1         0      1649         1         0
      1652         1         0      1655         1         0      1658         1         0
      1661         1         0      1664         1         0      1667         1         0
      1671         1         0      1674         1         0      1677         1         0
      1680         1         0      1683         1         0      1686         1         0
      1689         1         0      1692         1         0      1695         1         0
      1698         1         0      1701         1         0      1704         1         0
      1707         1         0      1710         1         0      1714         2         0
      1730         2         0      1741         1         0      1749         1         0
      1758         1         0      1761         1         0      1764         1         0
      1767         1         0      1770         1         0      1773         1         0
      1776         1         0      1778         1         0      1780         1         0
      1783         1         0      1786         1         0      1789         1         0
      1792         1         0      1795         1         0      1798         1         0
      1801         1         0      1805         1         0      1808         1         0
      1811         1         0      1814         1         0      1817         1         0
      1820         1         0      1823         1         0      1826         1         0
      1829         1         0      1832         1         0      1835         1         0
      1838         1         0      1841         1         0      1844         1         0
      1848         2         0      1864         2         0      1875         1         0
      1883         1         0      1892         1         0      1895         1         0
      1898         1         0      1901         1         0      1904         1         0
      1907         1         0      1910         1         0      1912         1         0
      1914         1         0      1917         1         0      1920         1         0
      1923         1         0      1926         1         0      1929         1         0
      1932         1         0      1935         1         0      1939         1         0
      1942         1         0      1945         1         0      1948         1         0
      1951         1         0      1954         1         0      1957         1         0
      1960         1         0      1963         1         0      1966         1         0
      1969         1         0      1972         1         0      1975         1         0
      1978         1         0      1982         2         0      1998         2         0
      2009         1         0      2017         1         0      2026         1         0
      2029         1         0      2032         1         0      2035         1         0
      2038         1         0      2041         1         0      2044         1         0
      2046         1         0      2048         1         0      2051         1         0
      2054         1         0      2057         1         0      2060         1         0
      2063         1         0      2066         1         0      2069         1         0
      2073         1         0      2076         1         0      2079         1         0
      2082         1         0      2085         1         0      2088         1         0
      2091         1         0      2094         1         0      2097         1         0
      2100         1         0      2103         1         0      2106         1         0
      2109         1         0      2112         1         0      2116         2         0
      2132         2         0      2143         1         0      2151         1         0
      2160         1         0      2163         1         0      2166         1         0
      2169         1         0      2172         1         0      2175         1         0
      2178         1         0      2180         1         0      2182         1         0
      2185         1         0      2188         1         0      2191         1         0
      2194         1         0      2197         1         0      2200         1         0
      2203         1         0      2207         1         0      2210         1         0
      2213         1         0      2216         1         0      2219         1         0
      2222         1         0      2225         1         0      2228         1         0
      2231         1         0      2234         1         0      2237         1         0
      2240         1         0      2243         1         0      2246         1         0
      2250         2         0      2266         2         0      2277         1         0
      2285         1         0      2294         1         0      2297         1         0
      2300         1         0      2303         1         0      2306         1         0
      2309         1         0      2312         1         0      2314         1         0
      2316         1         0      2319         1         0      2322         1         0
      2325         1         0      2328         1         0      2331         1         0
      2334         1         0      2337         1         0      2341         1         0
      2344         1         0      2347         1         0      2350         1         0
      2353         1         0      2356         1         0      2359         1         0
      2362         1         0      2365         1         0      2368         1         0
      2371         1         0      2374         1         0      2377         1         0
      2380         1         0      2384         2         0      2400         2         0
      2411         1         0      2419         1         0      2428         1         0
      2431         1         0      2434         1         0      2437         1         0
      2440         1         0      2443         1         0      2446         1         0
      2448         1         0      2450         1         0      2453         1         0
      2456         1         0      2459         1         0      2462         1         0
      2465         1         0      2468         1         0      2471         1         0
      2475         1         0      2478         1         0      2481         1         0
      2484         1         0      2487         1         0      2490         1         0
      2493         1         0      2496         1         0      2499         1         0
      2502         1         0      2505         1         0      2508         1         0
      2511         1         0      2514         1         0      2518         2         0
      2534         2         0      2545         1         0      2553         1         0
      2562         1         0      2565         1         0      2568         1         0
      2571         1         0      2574         1         0      2577         1         0
      2580         1         0      2582         1         0      2584         1         0
      2587         1         0      2590         1         0      2593         1         0
      2596         1         0      2599         1         0      2602         1         0
      2605         1         0      2609         1         0      2612         1         0
      2615         1         0      2618         1         0      2621         1         0
      2624         1         0      2627         1         0      2630         1         0
      2633         1         0      2636         1         0      2639         1         0
      2642         1         0      2645         1         0      2648         1         0
      2652         2         0      2668         2         0      2679         1         0
      2687         1         0      2696         1         0      2699         1         0
      2702         1         0      2705         1         0      2708         1         0
      2711         1         0      2714         1         0      2716         1         0
      2718         1         0      2721         1         0      2724         1         0
      2727         1         0      2730         1         0      2733         1         0
      2736         1         0      2739         1         0      2743         1         0
      2746         1         0      2749         1         0      2752         1         0
      2755         1         0      2758         1         0      2761         1         0
      2764         1         0      2767         1         0      2770         1         0
      2773         1         0      2776         1         0      2779         1         0
      2782         1         0      2786         2         0      2802         2         0
      2813         1         0      2821         1         0      2830         1         0
      2833         1         0      2836         1         0      2839         1         0
      2842         1         0      2845         1         0      2848         1         0
      2850         1         0      2852         1         0      2855         1         0
      2858         1         0      2861         1         0      2864         1         0
      2867         1         0      2870         1         0      2873         1         0
      2877         1         0      2880         1         0      2883         1         0
      2886         1         0      2889         1         0      2892         1         0
      2895         1         0      2898         1         0      2901         1         0
      2904         1         0      2907         1         0      2910         1         0
      2913         1         0      2916         1         0      2920         2         0
      2936         2         0      2947         1         0      2955         1         0
      2964         1         0      2967         1         0      2970         1         0
      2973         1         0      2976         1         0      2979         1         0
      2982         1         0      2984         1         0      2986         1         0
      2989         1         0      2992         1         0      2995         1         0
      2998         1         0      3001         1         0      3004         1         0
      3007         1         0      3011         1         0      3014         1         0
      3017         1         0      3020         1         0      3023         1         0
      3026         1         0      3029         1         0      3032         1         0
      3035         1         0      3038         1         0      3041         1         0
      3044         1         0      3047         1         0      3050         1         0
      3054         2         0      3060         2         0      3063         2         0
      3074         1         0      3082         1         0      3091         1         0
      3094         1         0      3097         1         0      3100         1         0
      3103         1         0      3106         1         0      3109         1         0
      3111         1         0      3113         1         0      3116         1         0
      3119         1         0      3122         1         0      3125         1         0
      3128         1         0      3131         1         0      3134         1         0
      3138         1         0      3141         1         0      3144         1         0
      3147         1         0      3150         1         0      3153         1         0
      3156         1         0      3159         1         0      3162         1         0
      3165         1         0      3168         1         0      3171         1         0
      3174         1         0      3177         1         0      3181         2         0
      3187         2         0      3190         2         0      3201         1         0
      3209         1         0      3218         1         0      3221         1         0
      3224         1         0      3227         1         0      3230         1         0
      3233         1         0      3236         1         0      3238         1         0
      3240         1         0      3243         1         0      3246         1         0
      3249         1         0      3252         1         0      3255         1         0
      3258         1         0      3261         1         0      3265         1         0
      3268         1         0      3271         1         0      3274         1         0
      3277         1         0      3280         1         0      3283         1         0
      3286         1         0      3289         1         0      3292         1         0
      3295         1         0      3298         1         0      3301         1         0
      3304         1         0      3308         2         0      3324         2         0
      3335         1         0      3343         1         0      3352         1         0
      3355         1         0      3358         1         0      3361         1         0
      3364         1         0      3367         1         0      3370         1         0
      3372         1         0      3374         1         0      3377         1         0
      3380         1         0      3383         1         0      3386         1         0
      3389         1         0      3392         1         0      3395         1         0
      3399         1         0      3402         1         0      3405         1         0
      3408         1         0      3411         1         0      3414         1         0
      3417         1         0      3420         1         0      3423         1         0
      3426         1         0      3429         1         0      3432         1         0
      3435         1         0      3438         1         0      3442         2         0
      3458         2         0      3469         1         0      3477         1         0
      3486         1         0      3489         1         0      3492         1         0
      3495         1         0      3498         1         0      3501         1         0
      3504         1         0      3506         1         0      3508         1         0
      3511         1         0      3514         1         0      3517         1         0
      3520         1         0      3523         1         0      3526         1         0
      3529         1         0      3533         1         0      3536         1         0
      3539         1         0      3542         1         0      3545         1         0
      3548         1         0      3551         1         0      3554         1         0
      3557         1         0      3560         1         0      3563         1         0
      3566         1         0      3569         1         0      3572         1         0
      3576         2         0      3592         2         0      3603         1         0
      3611         1         0      3620         1         0      3623         1         0
      3626         1         0      3629         1         0      3632         1         0
      3635         1         0      3638         1         0      3640         1         0
      3642         1         0      3645         1         0      3648         1         0
      3651         1         0      3654         1         0      3657         1         0
      3660         1         0      3663         1         0      3667         1         0
      3670         1         0      3673         1         0      3676         1         0
      3679         1         0      3682         1         0      3685         1         0
      3688         1         0      3691         1         0      3694         1         0
      3697         1         0      3700         1         0      3703         1         0
      3706         1         0      3710         2         0      3726         2         0
      3737         1         0      3745         1         0      3754         1         0
      3757         1         0      3760         1         0      3763         1         0
      3766         1         0      3769         1         0      3772         1         0
      3774         1         0      3776         1         0      3779         1         0
      3782         1         0      3785         1         0      3788         1         0
      3791         1         0      3794         1         0      3797         1         0
      3801         1         0      3804         1         0      3807         1         0
      3810         1         0      3813         1         0      3816         1         0
      3819         1         0      3822         1         0      3825         1         0
      3828         1         0      3831         1         0      3834         1         0
      3837         1         0      3840         1         0      3844         2         0
      3860         2         0      3871         1         0      3879         1         0
      3888         1         0      3891         1         0      3894         1         0
      3897         1         0      3900         1         0      3903         1         0
      3906         1         0      3908         1         0      3910         1         0
      3913         1         0      3916         1         0      3919         1         0
      3922         1         0      3925         1         0      3928         1         0
      3931         1         0      3935         1         0      3938         1         0
      3941         1         0      3944         1         0      3947         1         0
      3950         1         0      3953         1         0      3956         1         0
      3959         1         0      3962         1         0      3965         1         0
      3968         1         0      3971         1         0      3974         1         0
      3978         2         0      3984         2         0      3987         2         0
      3998         1         0      4006         1         0      4015         1         0
      4018         1         0      4021         1         0      4024         1         0
      4027         1         0      4030         1         0      4033         1         0
      4035         1         0      4037         1         0      4040         1         0
      4043         1         0      4046         1         0      4049         1         0
      4052         1         0      4055         1         0      4058         1         0
      4062         1         0      4065         1         0      4068         1         0
      4071         1         0      4074         1         0      4077         1         0
      4080         1         0      4083         1         0      4086         1         0
      4089         1         0      4092         1         0      4095         1         0
      4098         1         0      4101         1         0      4105         2         0
      4121         2         0      4132         1         0      4140         1         0
      4149         1         0      4152         1         0      4155         1         0
      4158         1         0      4161         1         0      4164         1         0
      4167         1         0      4169         1         0      4171         1         0
      4174         1         0      4177         1         0      4180         1         0
      4183         1         0      4186         1         0      4189         1         0
      4192         1         0      4196         1         0      4199         1         0
      4202         1         0      4205         1         0      4208         1         0
      4211         1         0      4214         1         0      4217         1         0
      4220         1         0      4223         1         0      4226         1         0
      4229         1         0      4232         1         0      4235         1         0
      4239         2         0      4255         2         0      4266         1         0
      4274         1         0      4283         1         0      4286         1         0
      4289         1         0      4292         1         0      4295         1         0
      4298         1         0      4301         1         0      4303         1         0
      4305         1         0      4308         1         0      4311         1         0
      4314         1         0      4317         1         0      4320         1         0
      4323         1         0      4326         1         0      4330         1         0
      4333         1         0      4336         1         0      4339         1         0
      4342         1         0      4345         1         0      4348         1         0
      4351         1         0      4354         1         0      4357         1         0
      4360         1         0      4363         1         0      4366         1         0
      4369         1         0      4373         2         0      4389         2         0
      4400         1         0      4408         1         0      4417         1         0
      4420         1         0      4423         1         0      4426         1         0
      4429         1         0      4432         1         0      4435         1         0
      4437         1         0      4439         1         0      4442         1         0
      4445         1         0      4448         1         0      4451         1         0
      4454         1         0      4457         1         0      4460         1         0
      4464         1         0      4467         1         0      4470         1         0
      4473         1         0      4476         1         0      4479         1         0
      4482         1         0      4485         1         0      4488         1         0
      4491         1         0      4494         1         0      4497         1         0
      4500         1         0      4503         1         0      4507         2         0
      4513         2         0      4516         2         0      4527         1         0
      4535         1         0      4544         1         0      4547         1         0
      4550         1         0      4553         1         0      4556         1         0
      4559         1         0      4562         1         0      4564         1         0
      4566         1         0      4569         1         0      4572         1         0
      4575         1         0      4578         1         0      4581         1         0
      4584         1         0      4587         1         0      4591         1         0
      4594         1         0      4597         1         0      4600         1         0
      4603         1         0      4606         1         0      4609         1         0
      4612         1         0      4615         1         0      4618         1         0
      4621         1         0      4624         1         0      4627         1         0
      4630         1         0      4634         2         0      4650         2         0
      4661         1         0      4669         1         0      4678         1         0
      4681         1         0      4684         1         0      4687         1         0
      4690         1         0      4693         1         0      4696         1         0
      4698         1         0      4700         1         0      4703         1         0
      4706         1         0      4709         1         0      4712         1         0
      4715         1         0      4718         1         0      4721         1         0
      4725         1         0      4728         1         0      4731         1         0
      4734         1         0      4737         1         0      4740         1         0
      4743         1         0      4746         1         0      4749         1         0
      4752         1         0      4755         1         0      4758         1         0
      4761         1         0      4764         1         0      4768         2         0
      4784         2         0      4795         1         0      4803         1         0
      4812         1         0      4815         1         0      4818         1         0
      4821         1         0      4824         1         0      4827         1         0
      4830         1         0      4832         1         0      4834         1         0
      4837         1         0      4840         1         0      4843         1         0
      4846         1         0      4849         1         0      4852         1         0
      4855         1         0      4859         1         0      4862         1         0
      4865         1         0      4868         1         0      4871         1         0
      4874         1         0      4877         1         0      4880         1         0
      4883         1         0      4886         1         0      4889         1         0
      4892         1         0      4895         1         0      4898         1         0
      4902         2         0      4918         2         0      4929         1         0
      4937         1         0      4946         1         0      4949         1         0
      4952         1         0      4955         1         0      4958         1         0
      4961         1         0      4964         1         0      4966         1         0
      4968         1         0      4971         1         0      4974         1         0
      4977         1         0      4980         1         0      4983         1         0
      4986         1         0      4989         1         0      4993         1         0
      4996         1         0      4999         1         0      5002         1         0
      5005         1         0      5008         1         0      5011         1         0
      5014         1         0      5017         1         0      5020         1         0
      5023         1         0      5026         1         0      5029         1         0
      5032         1         0      5036         2         0      5052         2         0
      5063         1         0      5071         1         0      5080         1         0
      5083         1         0      5086         1         0      5089         1         0
      5092         1         0      5095         1         0      5098         1         0
      5100         1         0      5102         1         0      5105         1         0
      5108         1         0      5111         1         0      5114         1         0
      5117         1         0      5120         1         0      5123         1         0
      5127         1         0      5130         1         0      5133         1         0
      5136         1         0      5139         1         0      5142         1         0
      5145         1         0      5148         1         0      5151         1         0
      5154         1         0      5157         1         0      5160         1         0
      5163         1         0      5166         1         0      5170         2         0
      5186         2         0      5197         1         0      5205         1         0
      5214         1         0      5217         1         0      5220         1         0
      5223         1         0      5226         1         0      5229         1         0
      5232         1         0      5234         1         0      5236         1         0
      5239         1         0      5242         1         0      5245         1         0
      5248         1         0      5251         1         0      5254         1         0
      5257         1         0      5261         1         0      5264         1         0
      5267         1         0      5270         1         0      5273         1         0
      5276         1         0      5279         1         0      5282         1         0
      5285         1         0      5288         1         0      5291         1         0
      5294         1         0      5297         1         0      5300         1         0
      5304         2         0      5320         2         0      5331         1         0
      5339         1         0      5348         1         0      5351         1         0
      5354         1         0      5357         1         0      5360         1         0
      5363         1         0      5366         1         0      5368         1         0
      5370         1         0      5373         1         0      5376         1         0
      5379         1         0      5382         1         0      5385         1         0
      5388         1         0      5391         1         0      5395         1         0
      5398         1         0      5401         1         0      5404         1         0
      5407         1         0      5410         1         0      5413         1         0
      5416         1         0      5419         1         0      5422         1         0
      5425         1         0      5428         1         0      5431         1         0
      5434         1         0      5438         2         0      5454         2         0
      5465         1         0      5473         1         0      5482         1         0
      5485         1         0      5488         1         0      5491         1         0
      5494         1         0      5497         1         0      5500         1         0
      5502         1         0      5504         1         0      5507         1         0
      5510         1         0      5513         1         0      5516         1         0
      5519         1         0      5522         1         0      5525         1         0
      5529         1         0      5532         1         0      5535         1         0
      5538         1         0      5541         1         0      5544         1         0
      5547         1         0      5550         1         0      5553         1         0
      5556         1         0      5559         1         0      5562         1         0
      5565         1         0      5568         1         0      5572         2         0
      5588         2         0      5599         1         0      5607         1         0
      5616         1         0      5619         1         0      5622         1         0
      5625         1         0      5628         1         0      5631         1         0
      5634         1         0      5636         1         0      5638         1         0
      5641         1         0      5644         1         0      5647         1         0
      5650         1         0      5653         1         0      5656         1         0
      5659         1         0      5663         1         0      5666         1         0
      5669         1         0      5672         1         0      5675         1         0
      5678         1         0      5681         1         0      5684         1         0
      5687         1         0      5690         1         0      5693         1         0
      5696         1         0      5699         1         0      5702         1         0
      5706         2         0      5722         2         0      5733         1         0
      5741         1         0      5750         1         0      5753         1         0
      5756         1         0      5759         1         0      5762         1         0
      5765         1         0      5768         1         0      5770         1         0
      5772         1         0      5775         1         0      5778         1         0
      5781         1         0      5784         1         0      5787         1         0
      5790         1         0      5793         1         0      5797         1         0
      5800         1         0      5803         1         0      5806         1         0
      5809         1         0      5812         1         0      5815         1         0
      5818         1         0      5821         1         0      5824         1         0
      5827         1         0      5830         1         0      5833         1         0
      5836         1         0      5840         2         0      5856         2         0
      5867         1         0      5875         1         0      5884         1         0
      5887         1         0      5890         1         0      5893         1         0
      5896         1         0      5899         1         0      5902         1         0
      5904         1         0      5906         1         0      5909         1         0
      5912         1         0      5915         1         0      5918         1         0
      5921         1         0      5924         1         0      5927         1         0
      5931         1         0      5934         1         0      5937         1         0
      5940         1         0      5943         1         0      5946         1         0
      5949         1         0      5952         1         0      5955         1         0
      5958         1         0      5961         1         0      5964         1         0
      5967         1         0      5970         1         0      5974         2         0
      5990         2         0      6001         1         0      6009         1         0
      6018         1         0      6021         1         0      6024         1         0
      6027         1         0      6030         1         0      6033         1         0
      6036         1         0      6038         1         0      6040         1         0
      6043         1         0      6046         1         0      6049         1         0
      6052         1         0      6055         1         0      6058         1         0
      6061         1         0      6065         1         0      6068         1         0
      6071         1         0      6074         1         0      6077         1         0
      6080         1         0      6083         1         0      6086         1         0
      6089         1         0      6092         1         0      6095         1         0
      6098         1         0      6101         1         0      6104         1         0
      6108         2         0      6114         2         0      6117         2         0
      6128         1         0      6136         1         0      6145         1         0
      6148         1         0      6151         1         0      6154         1         0
      6157         1         0      6160         1         0      6163         1         0
      6165         1         0      6167         1         0      6170         1         0
      6173         1         0      6176         1         0      6179         1         0
      6182         1         0      6185         1         0      6188         1         0
      6192         1         0      6195         1         0      6198         1         0
      6201         1         0      6204         1         0      6207         1         0
      6210         1         0      6213         1         0      6216         1         0
      6219         1         0      6222         1         0      6225         1         0
      6228         1         0      6231         1         0      6235         2         0
      6251         2         0      6262         1         0      6270         1         0
      6279         1         0      6282         1         0      6285         1         0
      6288         1         0      6291         1         0      6294         1         0
      6297         1         0      6299         1         0      6301         1         0
      6304         1         0      6307         1         0      6310         1         0
      6313         1         0      6316         1         0      6319         1         0
      6322         1         0      6326         1         0      6329         1         0
      6332         1         0      6335         1         0      6338         1         0
      6341         1         0      6344         1         0      6347         1         0
      6350         1         0      6353         1         0      6356         1         0
      6359         1         0      6362         1         0      6365         1         0
      6369         2         0      6385         2         0      6396         1         0
      6404         1         0      6413         1         0      6416         1         0
      6419         1         0      6422         1         0      6425         1         0
      6428         1         0      6431         1         0      6433         1         0
      6435         1         0      6438         1         0      6441         1         0
      6444         1         0      6447         1         0      6450         1         0
      6453         1         0      6456         1         0      6460         1         0
      6463         1         0      6466         1         0      6469         1         0
      6472         1         0      6475         1         0      6478         1         0
      6481         1         0      6484         1         0      6487         1         0
      6490         1         0      6493         1         0      6496         1         0
      6499         1         0      6503         2         0      6509         2         0
      6512         2         0      6523         1         0      6531         1         0
      6540         1         0      6543         1         0      6546         1         0
      6549         1         0      6552         1         0      6555         1         0
      6558         1         0      6560         1         0      6562         1         0
      6565         1         0      6568         1         0      6571         1         0
      6574         1         0      6577         1         0      6580         1         0
      6583         1         0      6587         1         0      6590         1         0
      6593         1         0      6596         1         0      6599         1         0
      6602         1         0      6605         1         0      6608         1         0
      6611         1         0      6614         1         0      6617         1         0
      6620         1         0      6623         1         0      6626         1         0
      6630         2         0      6636         2         0      6639         2         0
      6650         1         0      6658         1         0      6667         1         0
      6670         1         0      6673         1         0      6676         1         0
      6679         1         0      6682         1         0      6685         1         0
      6687         1         0      6689         1         0      6692         1         0
      6695         1         0      6698         1         0      6701         1         0
      6704         1         0      6707         1         0      6710         1         0
      6714         1         0      6717         1         0      6720         1         0
      6723         1         0      6726         1         0      6729         1         0
      6732         1         0      6735         1         0      6738         1         0
      6741         1         0      6744         1         0      6747         1         0
      6750         1         0      6753         1         0      6757         2         0
      6773         2         0      6784         1         0      6792         1         0
      6801         1         0      6804         1         0      6807         1         0
      6810         1         0      6813         1         0      6816         1         0
      6819         1         0      6821         1         0      6823         1         0
      6826         1         0      6829         1         0      6832         1         0
      6835         1         0      6838         1         0      6841         1         0
      6844         1         0      6848         1         0      6851         1         0
      6854         1         0      6857         1         0      6860         1         0
      6863         1         0      6866         1         0      6869         1         0
      6872         1         0      6875         1         0      6878         1         0
      6881         1         0      6884         1         0      6887         1         0
      6891         2         0      6907         2         0      6918         1         0
      6926         1         0      6935         1         0      6938         1         0
      6941         1         0      6944         1         0      6947         1         0
      6950         1         0      6953         1         0      6955         1         0
      6957         1         0      6960         1         0      6963         1         0
      6966         1         0      6969         1         0      6972         1         0
      6975         1         0      6978         1         0      6982         1         0
      6985         1         0      6988         1         0      6991         1         0
      6994         1         0      6997         1         0      7000         1         0
      7003         1         0      7006         1         0      7009         1         0
      7012         1         0      7015         1         0      7018         1         0
      7021         1         0      7025         2         0      7031         2         0
      7034         2         0      7045         1         0      7053         1         0
      7062         1         0      7065         1         0      7068         1         0
      7071         1         0      7074         1         0      7077         1         0
      7080         1         0      7082         1         0      7084         1         0
      7087         1         0      7090         1         0      7093         1         0
      7096         1         0      7099         1         0      7102         1         0
      7105         1         0      7109         1         0      7112         1         0
      7115         1         0      7118         1         0      7121         1         0
      7124         1         0      7127         1         0      7130         1         0
      7133         1         0      7136         1         0      7139         1         0
      7142         1         0      7145         1         0      7148         1         0
      7152         2         0      7168         2         0      7179         1         0
      7187         1         0      7196         1         0      7199         1         0
      7202         1         0      7205         1         0      7208         1         0
      7211         1         0      7214         1         0      7216         1         0
      7218         1         0      7221         1         0      7224         1         0
      7227         1         0      7230         1         0      7233         1         0
      7236         1         0      7239         1         0      7243         1         0
      7246         1         0      7249         1         0      7252         1         0
      7255         1         0      7258         1         0      7261         1         0
      7264         1         0      7267         1         0      7270         1         0
      7273         1         0      7276         1         0      7279         1         0
      7282         1         0      7286         2         0      7302         2         0
      7313         1         0      7321         1         0      7330         1         0
      7333         1         0      7336         1         0      7339         1         0
      7342         1         0      7345         1         0      7348         1         0
      7350         1         0      7352         1         0      7355         1         0
      7358         1         0      7361         1         0      7364         1         0
      7367         1         0      7370         1         0      7373         1         0
      7377         1         0      7380         1         0      7383         1         0
      7386         1         0      7389         1         0      7392         1         0
      7395         1         0      7398         1         0      7401         1         0
      7404         1         0      7407         1         0      7410         1         0
      7413         1         0      7416         1         0      7420         2         0
      7426         2         0      7429         2         0      7440         1         0
      7448         1         0      7457         1         0      7460         1         0
      7463         1         0      7466         1         0      7469         1         0
      7472         1         0      7475         1         0      7477         1         0
      7479         1         0      7482         1         0      7485         1         0
      7488         1         0      7491         1         0      7494         1         0
      7497         1         0      7500         1         0      7504         1         0
      7507         1         0      7510         1         0      7513         1         0
      7516         1         0      7519         1         0      7522         1         0
      7525         1         0      7528         1         0      7531         1         0
      7534         1         0      7537         1         0      7540         1         0
      7543         1         0      7547         2         0      7563         2         0
      7574         1         0      7582         1         0      7591         1         0
      7594         1         0      7597         1         0      7600         1         0
      7603         1         0      7606         1         0      7609         1         0
      7611         1         0      7613         1         0      7616         1         0
      7619         1         0      7622         1         0      7625         1         0
      7628         1         0      7631         1         0      7634         1         0
      7638         1         0      7641         1         0      7644         1         0
      7647         1         0      7650         1         0      7653         1         0
      7656         1         0      7659         1         0      7662         1         0
      7665         1         0      7668         1         0      7671         1         0
      7674         1         0      7677         1         0      7681         2         0
      7697         2         0      7708         1         0      7716         1         0
      7725         1         0      7728         1         0      7731         1         0
      7734         1         0      7737         1         0      7740         1         0
      7743         1         0      7745         1         0      7747         1         0
      7750         1         0      7753         1         0      7756         1         0
      7759         1         0      7762         1         0      7765         1         0
      7768         1         0      7772         1         0      7775         1         0
      7778         1         0      7781         1         0      7784         1         0
      7787         1         0      7790         1         0      7793         1         0
      7796         1         0      7799         1         0      7802         1         0
      7805         1         0      7808         1         0      7811         1         0
      7815         2         0      7831         2         0      7842         1         0
      7850         1         0      7859         1         0      7862         1         0
      7865         1         0      7868         1         0      7871         1         0
      7874         1         0      7877         1         0      7879         1         0
      7881         1         0      7884         1         0      7887         1         0
      7890         1         0      7893         1         0      7896         1         0
      7899         1         0      7902         1         0      7906         1         0
      7909         1         0      7912         1         0      7915         1         0
      7918         1         0      7921         1         0      7924         1         0
      7927         1         0      7930         1         0      7933         1         0
      7936         1         0      7939         1         0      7942         1         0
      7945         1         0      7949         2         0      7965         2         0
      7976         1         0      7984         1         0      7993         1         0
      7996         1         0      7999         1         0      8002         1         0
      8005         1         0      8008         1         0      8011         1         0
      8013         1         0      8015         1         0      8018         1         0
      8021         1         0      8024         1         0      8027         1         0
      8030         1         0      8033         1         0      8036         1         0
      8040         1         0      8043         1         0      8046         1         0
      8049         1         0      8052         1         0      8055         1         0
      8058         1         0      8061         1         0      8064         1         0
      8067         1         0      8070         1         0      8073         1         0
      8076         1         0      8079         1         0      8083         2         0
      8099         2         0      8110         1         0      8118         1         0
      8127         1         0      8130         1         0      8133         1         0
      8136         1         0      8139         1         0      8142         1         0
      8145         1         0      8147         1         0      8149         1         0
      8152         1         0      8155         1         0      8158         1         0
      8161         1         0      8164         1         0      8167         1         0
      8170         1         0      8174         1         0      8177         1         0
      8180         1         0      8183         1         0      8186         1         0
      8189         1         0      8192         1         0      8195         1         0
      8198         1         0      8201         1         0      8204         1         0
      8207         1         0      8210         1         0      8213         1         0
      8217         2         0      8233         2         0      8244         1         0
      8252         1         0      8261         1         0      8264         1         0
      8267         1         0      8270         1         0      8273         1         0
      8276         1         0      8279         1         0      8281         1         0
      8283         1         0      8286         1         0      8289         1         0
      8292         1         0      8295         1         0      8298         1         0
      8301         1         0      8304         1         0      8308         1         0
      8311         1         0      8314         1         0      8317         1         0
      8320         1         0      8323         1         0      8326         1         0
      8329         1         0      8332         1         0      8335         1         0
      8338         1         0      8341         1         0      8344         1         0
      8347         1         0      8351         2         0      8367         2         0
      8378         1         0      8386         1         0      8395         1         0
      8398         1         0      8401         1         0      8404         1         0
      8407         1         0      8410         1         0      8413         1         0
      8415         1         0      8417         1         0      8420         1         0
      8423         1         0      8426         1         0      8429         1         0
      8432         1         0      8435         1         0      8438         1         0
      8442         1         0      8445         1         0      8448         1         0
      8451         1         0      8454         1         0      8457         1         0
      8460         1         0      8463         1         0      8466         1         0
      8469         1         0      8472         1         0      8475         1         0
      8478         1         0      8481         1         0      8485         2         0
      8501         2         0      8512         1         0      8520         1         0
      8529         1         0      8532         1         0      8535         1         0
      8538         1         0      8541         1         0      8544         1         0
      8547         1         0      8549         1         0      8551         1         0
      8554         1         0      8557         1         0      8560         1         0
      8563         1         0      8566         1         0      8569         1         0
      8572         1         0      8576         1         0      8579         1         0
      8582         1         0      8585         1         0      8588         1         0
      8591         1         0      8594         1         0      8597         1         0
      8600         1         0      8603         1         0      8606         1         0
      8609         1         0      8612         1         0      8615         1         0
      8619         2         0      8625         2         0      8628         2         0
      8639         1         0      8647         1         0      8656         1         0
      8659         1         0      8662         1         0      8665         1         0
      8668         1         0      8671         1         0      8674         1         0
      8676         1         0      8678         1         0      8681         1         0
      8684         1         0      8687         1         0      8690         1         0
      8693         1         0      8696         1         0      8699         1         0
      8703         1         0      8706         1         0      8709         1         0
      8712         1         0      8715         1         0      8718         1         0
      8721         1         0      8724         1         0      8727         1         0
      8730         1         0      8733         1         0      8736         1         0
      8739         1         0      8742         1         0      8746         2         0
      8762         2         0      8773         1         0      8781         1         0
      8790         1         0      8793         1         0      8796         1         0
      8799         1         0      8802         1         0      8805         1         0
      8808         1         0      8810         1         0      8812         1         0
      8815         1         0      8818         1         0      8821         1         0
      8824         1         0      8827         1         0      8830         1         0
      8833         1         0      8837         1         0      8840         1         0
      8843         1         0      8846         1         0      8849         1         0
      8852         1         0      8855         1         0      8858         1         0
      8861         1         0      8864         1         0      8867         1         0
      8870         1         0      8873         1         0      8876         1         0
      8880         2         0      8896         2         0      8907         1         0
      8915         1         0      8924         1         0      8927         1         0
      8930         1         0      8933         1         0      8936         1         0
      8939         1         0      8942         1         0      8944         1         0
      8946         1         0      8949         1         0      8952         1         0
      8955         1         0      8958         1         0      8961         1         0
      8964         1         0      8967         1         0      8971         1         0
      8974         1         0      8977         1         0      8980         1         0
      8983         1         0      8986         1         0      8989         1         0
      8992         1         0      8995         1         0      8998         1         0
      9001         1         0      9004         1         0      9007         1         0
      9010         1         0      9014         2         0      9030         2         0
      9041         1         0      9049         1         0      9058         1         0
      9061         1         0      9064         1         0      9067         1         0
      9070         1         0      9073         1         0      9076         1         0
      9078         1         0      9080         1         0      9083         1         0
      9086         1         0      9089         1         0      9092         1         0
      9095         1         0      9098         1         0      9101         1         0
      9105         1         0      9108         1         0      9111         1         0
      9114         1         0      9117         1         0      9120         1         0
      9123         1         0      9126         1         0      9129         1         0
      9132         1         0      9135         1         0      9138         1         0
      9141         1         0      9144         1         0      9148         2         0
      9164         2         0      9175         1         0      9183         1         0
      9192         1         0      9195         1         0      9198         1         0
      9201         1         0      9204         1         0      9207         1         0
      9210         1         0      9212         1         0      9214         1         0
      9217         1         0      9220         1         0      9223         1         0
      9226         1         0      9229         1         0      9232         1         0
      9235         1         0      9239         1         0      9242         1         0
      9245         1         0      9248         1         0      9251         1         0
      9254         1         0      9257         1         0      9260         1         0
      9263         1         0      9266         1         0      9269         1         0
      9272         1         0      9275         1         0      9278         1         0
      9282         2         0      9298         2         0      9309         1         0
      9317         1         0      9326         1         0      9329         1         0
      9332         1         0      9335         1         0      9338         1         0
      9341         1         0      9344         1         0      9346         1         0
      9348         1         0      9351         1         0      9354         1         0
      9357         1         0      9360         1         0      9363         1         0
      9366         1         0      9369         1         0      9373         1         0
      9376         1         0      9379         1         0      9382         1         0
      9385         1         0      9388         1         0      9391         1         0
      9394         1         0      9397         1         0      9400         1         0
      9403         1         0      9406         1         0      9409         1         0
      9412         1         0      9416         2         0      9422         2         0
      9425         2         0      9436         1         0      9444         1         0
      9453         1         0      9456         1         0      9459         1         0
      9462         1         0      9465         1         0      9468         1         0
      9471         1         0      9473         1         0      9475         1         0
      9478         1         0      9481         1         0      9484         1         0
      9487         1         0      9490         1         0      9493         1         0
      9496         1         0      9500         1         0      9503         1         0
      9506         1         0      9509         1         0      9512         1         0
      9515         1         0      9518         1         0      9521         1         0
      9524         1         0      9527         1         0      9530         1         0
      9533         1         0      9536         1         0      9539         1         0
      9543         2         0      9559         2         0      9570         1         0
      9578         1         0      9587         1         0      9590         1         0
      9593         1         0      9596         1         0      9599         1         0
      9602         1         0      9605         1         0      9607         1         0
      9609         1         0      9612         1         0      9615         1         0
      9618         1         0      9621         1         0      9624         1         0
      9627         1         0      9630         1         0      9634         1         0
      9637         1         0      9640         1         0      9643         1         0
      9646         1         0      9649         1         0      9652         1         0
      9655         1         0      9658         1         0      9661         1         0
      9664         1         0      9667         1         0      9670         1         0
      9673         1         0      9677         2         0      9683         2         0
      9686         2         0      9697         1         0      9705         1         0
      9714         1         0      9717         1         0      9720         1         0
      9723         1         0      9726         1         0      9729         1         0
      9732         1         0      9734         1         0      9736         1         0
      9739         1         0      9742         1         0      9745         1         0
      9748         1         0      9751         1         0      9754         1         0
      9757         1         0      9761         1         0      9764         1         0
      9767         1         0      9770         1         0      9773         1         0
      9776         1         0      9779         1         0      9782         1         0
      9785         1         0      9788         1         0      9791         1         0
      9794         1         0      9797         1         0      9800         1         0
      9804         2         0      9820         2         0      9831         1         0
      9839         1         0      9848         1         0      9851         1         0
      9854         1         0      9857         1         0      9860         1         0
      9863         1         0      9866         1         0      9868         1         0
      9870         1         0      9873         1         0      9876         1         0
      9879         1         0      9882         1         0      9885         1         0
      9888         1         0      9891         1         0      9895         1         0
      9898         1         0      9901         1         0      9904         1         0
      9907         1         0      9910         1         0      9913         1         0
      9916         1         0      9919         1         0      9922         1         0
      9925         1         0      9928         1         0      9931         1         0
      9934         1         0      9938         2         0      9954         2         0
      9965         1         0      9973         1         0      9982         1         0
      9985         1         0      9988         1         0      9991         1         0
      9994         1         0      9997         1         0     10000         1         0
     10002         1         0     10004         1         0     10007         1         0
     10010         1         0     10013         1         0     10016         1         0
     10019         1         0     10022         1         0     10025         1         0
     10029         1         0     10032         1         0     10035         1         0
     10038         1         0     10041         1         0     10044         1         0
     10047         1         0     10050         1         0     10053         1         0
     10056         1         0     10059         1         0     10062         1         0
     10065         1         0     10068         1         0     10072         2         0
     10088         2         0     10099         1         0     10107         1         0
     10116         1         0     10119         1         0     10122         1         0
     10125         1         0     10128         1         0     10131         1         0
     10134         1         0     10136         1         0     10138         1         0
     10141         1         0     10144         1         0     10147         1         0
     10150         1         0     10153         1         0     10156         1         0
     10159         1         0     10163         1         0     10166         1         0
     10169         1         0     10172         1         0     10175         1         0
     10178         1         0     10181         1         0     10184         1         0
     10187         1         0     10190         1         0     10193         1         0
     10196         1         0     10199         1         0     10202         1         0
     10206         2         0     10212         2         0     10215         2         0
     10226         1         0     10234         1         0     10243         1         0
     10246         1         0     10249         1         0     10252         1         0
     10255         1         0     10258         1         0     10261         1         0
     10263         1         0     10265         1         0     10268         1         0
     10271         1         0     10274         1         0     10277         1         0
     10280         1         0     10283         1         0     10286         1         0
     10290         1         0     10293         1         0     10296         1         0
     10299         1         0     10302         1         0     10305         1         0
     10308         1         0     10311         1         0     10314         1         0
     10317         1         0     10320         1         0     10323         1         0
     10326         1         0     10329         1         0     10333         2         0
     10349         2         0     10360         1         0     10368         1         0
     10377         1         0     10380         1         0     10383         1         0
     10386         1         0     10389         1         0     10392         1         0
     10395         1         0     10397         1         0     10399         1         0
     10402         1         0     10405         1         0     10408         1         0
     10411         1         0     10414         1         0     10417         1         0
     10420         1         0     10424         1         0     10427         1         0
     10430         1         0     10433         1         0     10436         1         0
     10439         1         0     10442         1         0     10445         1         0
     10448         1         0     10451         1         0     10454         1         0
     10457         1         0     10460         1         0     10463         1         0
     10467         2         0     10473         2         0     10476         2         0
     10487         1         0     10495         1         0     10504         1         0
     10507         1         0     10510         1         0     10513         1         0
     10516         1         0     10519         1         0     10522         1         0
     10524         1         0     10526         1         0     10529         1         0
     10532         1         0     10535         1         0     10538         1         0
     10541         1         0     10544         1         0     10547         1         0
     10551         1         0     10554         1         0     10557         1         0
     10560         1         0     10563         1         0     10566         1         0
     10569         1         0     10572         1         0     10575         1         0
     10578         1         0     10581         1         0     10584         1         0
     10587         1         0     10590         1         0     10594         2         0
     10600         2         0     10603         2         0     10614         1         0
     10622         1         0     10631         1         0     10634         1         0
     10637         1         0     10640         1         0     10643         1         0
     10646         1         0     10649         1         0     10651         1         0
     10653         1         0     10656         1         0     10659         1         0
     10662         1         0     10665         1         0     10668         1         0
     10671         1         0     10674         1         0     10678         1         0
     10681         1         0     10684         1         0     10687         1         0
     10690         1         0     10693         1         0     10696         1         0
     10699         1         0     10702         1         0     10705         1         0
     10708         1         0     10711         1         0     10714         1         0
     10717         1         0     10721         2         0     10737         2         0
     10748         1         0     10756         1         0     10765         1         0
     10768         1         0     10771         1         0     10774         1         0
     10777         1         0     10780         1         0     10783         1         0
     10785         1         0     10787         1         0     10790         1         0
     10793         1         0     10796         1         0     10799         1         0
     10802         1         0     10805         1         0     10808         1         0
     10812         1         0     10815         1         0     10818         1         0
     10821         1         0     10824         1         0     10827         1         0
     10830         1         0     10833         1         0     10836         1         0
     10839         1         0     10842         1         0     10845         1         0
     10848         1         0     10851         1         0     10855         2         0
     10871         2         0     10882         1         0     10890         1         0
     10899         1         0     10902         1         0     10905         1         0
     10908         1         0     10911         1         0     10914         1         0
     10917         1         0     10919         1         0     10921         1         0
     10924         1         0     10927         1         0     10930         1         0
     10933         1         0     10936         1         0     10939         1         0
     10942         1         0     10946         1         0     10949         1         0
     10952         1         0     10955         1         0     10958         1         0
     10961         1         0     10964         1         0     10967         1         0
     10970         1         0     10973         1         0     10976         1         0
     10979         1         0     10982         1         0     10985         1         0
     10989         2         0     11005         2         0     11016         1         0
     11024         1         0     11033         1         0     11036         1         0
     11039         1         0     11042         1         0     11045         1         0
     11048         1         0     11051         1         0     11053         1         0
     11055         1         0     11058         1         0     11061         1         0
     11064         1         0     11067         1         0     11070         1         0
     11073         1         0     11076         1         0     11080         1         0
     11083         1         0     11086         1         0     11089         1         0
     11092         1         0     11095         1         0     11098         1         0
     11101         1         0     11104         1         0     11107         1         0
     11110         1         0     11113         1         0     11116         1         0
     11119         1         0     11123         2         0     11139         2         0
     11150         1         0     11158         1         0     11167         1         0
     11170         1         0     11173         1         0     11176         1         0
     11179         1         0     11182         1         0     11185         1         0
     11187         1         0     11189         1         0     11192         1         0
     11195         1         0     11198         1         0     11201         1         0
     11204         1         0     11207         1         0     11210         1         0
     11214         1         0     11217         1         0     11220         1         0
     11223         1         0     11226         1         0     11229         1         0
     11232         1         0     11235         1         0     11238         1         0
     11241         1         0     11244         1         0     11247         1         0
     11250         1         0     11253         1         0     11257         2         0
     11273         2         0     11284         1         0     11292         1         0
     11301         1         0     11304         1         0     11307         1         0
     11310         1         0     11313         1         0     11316         1         0
     11319         1         0     11321         1         0     11323         1         0
     11326         1         0     11329         1         0     11332         1         0
     11335         1         0     11338         1         0     11341         1         0
     11344         1         0     11348         1         0     11351         1         0
     11354         1         0     11357         1         0     11360         1         0
     11363         1         0     11366         1         0     11369         1         0
     11372         1         0     11375         1         0     11378         1         0
     11381         1         0     11384         1         0     11387         1         0
     11391         2         0     11407         2         0     11418         1         0
     11426         1         0     11435         1         0     11438         1         0
     11441         1         0     11444         1         0     11447         1         0
     11450         1         0     11453         1         0     11455         1         0
     11457         1         0     11460         1         0     11463         1         0
     11466         1         0     11469         1         0     11472         1         0
     11475         1         0     11478         1         0     11482         1         0
     11485         1         0     11488         1         0     11491         1         0
     11494         1         0     11497         1         0     11500         1         0
     11503         1         0     11506         1         0     11509         1         0
     11512         1         0     11515         1         0     11518         1         0
     11521         1         0     11525         2         0     11541         2         0
     11552         1         0     11560         1         0     11569         1         0
     11572         1         0     11575         1         0     11578         1         0
     11581         1         0     11584         1         0     11587         1         0
     11589         1         0     11591         1         0     11594         1         0
     11597         1         0     11600         1         0     11603         1         0
     11606         1         0     11609         1         0     11612         1         0
     11616         1         0     11619         1         0     11622         1         0
     11625         1         0     11628         1         0     11631         1         0
     11634         1         0     11637         1         0     11640         1         0
     11643         1         0     11646         1         0     11649         1         0
     11652         1         0     11655         1         0     11659         2         0
     11675         2         0     11686         1         0     11694         1         0
     11703         1         0     11706         1         0     11709         1         0
     11712         1         0     11715         1         0     11718         1         0
     11721         1         0     11723         1         0     11725         1         0
     11728         1         0     11731         1         0     11734         1         0
     11737         1         0     11740         1         0     11743         1         0
     11746         1         0     11750         1         0     11753         1         0
     11756         1         0     11759         1         0     11762         1         0
     11765         1         0     11768         1         0     11771         1         0
     11774         1         0     11777         1         0     11780         1         0
     11783         1         0     11786         1         0     11789         1         0
     11793         2         0     11809         2         0     11820         1         0
     11828         1         0     11837         1         0     11840         1         0
     11843         1         0     11846         1         0     11849         1         0
     11852         1         0     11855         1         0     11857         1         0
     11859         1         0     11862         1         0     11865         1         0
     11868         1         0     11871         1         0     11874         1         0
     11877         1         0     11880         1         0     11884         1         0
     11887         1         0     11890         1         0     11893         1         0
     11896         1         0     11899         1         0     11902         1         0
     11905         1         0     11908         1         0     11911         1         0
     11914         1         0     11917         1         0     11920         1         0
     11923         1         0     11927         2         0     11933         2         0
     11936         2         0     11947         1         0     11955         1         0
     11964         1         0     11967         1         0     11970         1         0
     11973         1         0     11976         1         0     11979         1         0
     11982         1         0     11984         1         0     11986         1         0
     11989         1         0     11992         1         0     11995         1         0
     11998         1         0     12001         1         0     12004         1         0
     12007         1         0     12011         1         0     12014         1         0
     12017         1         0     12020         1         0     12023         1         0
     12026         1         0     12029         1         0     12032         1         0
     12035         1         0     12038         1         0     12041         1         0
     12044         1         0     12047         1         0     12050         1         0
     12054         2         0     12060         2         0     12063         2         0
     12074         1         0     12082         1         0     12091         1         0
     12094         1         0     12097         1         0     12100         1         0
     12103         1         0     12106         1         0     12109         1         0
     12111         1         0     12113         1         0     12116         1         0
     12119         1         0     12122         1         0     12125         1         0
     12128         1         0     12131         1         0     12134         1         0
     12138         1         0     12141         1         0     12144         1         0
     12147         1         0     12150         1         0     12153         1         0
     12156         1         0     12159         1         0     12162         1         0
     12165         1         0     12168         1         0     12171         1         0
     12174         1         0     12177         1         0     12181         2         0
     12197         2         0     12208         1         0     12216         1         0
     12225         1         0     12228         1         0     12231         1         0
     12234         1         0     12237         1         0     12240         1         0
     12243         1         0     12245         1         0     12247         1         0
     12250         1         0     12253         1         0     12256         1         0
     12259         1         0     12262         1         0     12265         1         0
     12268         1         0     12272         1         0     12275         1         0
     12278         1         0     12281         1         0     12284         1         0
     12287         1         0     12290         1         0     12293         1         0
     12296         1         0     12299         1         0     12302         1         0
     12305         1         0     12308         1         0     12311         1         0
     12315         2         0     12331         2         0     12342         1         0
     12350         1         0     12359         1         0     12362         1         0
     12365         1         0     12368         1         0     12371         1         0
     12374         1         0     12377         1         0     12379         1         0
     12381         1         0     12384         1         0     12387         1         0
     12390         1         0     12393         1         0     12396         1         0
     12399         1         0     12402         1         0     12406         1         0
     12409         1         0     12412         1         0     12415         1         0
     12418         1         0     12421         1         0     12424         1         0
     12427         1         0     12430         1         0     12433         1         0
     12436         1         0     12439         1         0     12442         1         0
     12445         1         0     12449         2         0     12455         2         0
     12458         2         0     12469         1         0     12477         1         0
     12486         1         0     12489         1         0     12492         1         0
     12495         1         0     12498         1         0     12501         1         0
     12504         1         0     12506         1         0     12508         1         0
     12511         1         0     12514         1         0     12517         1         0
     12520         1         0     12523         1         0     12526         1         0
     12529         1         0     12533         1         0     12536         1         0
     12539         1         0     12542         1         0     12545         1         0
     12548         1         0     12551         1         0     12554         1         0
     12557         1         0     12560         1         0     12563         1         0
     12566         1         0     12569         1         0     12572         1         0
     12576         2         0     12592         2         0     12603         1         0
     12611         1         0     12620         1         0     12623         1         0
     12626         1         0     12629         1         0     12632         1         0
     12635         1         0     12638         1         0     12640         1         0
     12642         1         0     12645         1         0     12648         1         0
     12651         1         0     12654         1         0     12657         1         0
     12660         1         0     12663         1         0     12667         1         0
     12670         1         0     12673         1         0     12676         1         0
     12679         1         0     12682         1         0     12685         1         0
     12688         1         0     12691         1         0     12694         1         0
     12697         1         0     12700         1         0     12703         1         0
     12706         1         0     12710         2         0     12726         2         0
     12737         1         0     12745         1         0     12754         1         0
     12757         1         0     12760         1         0     12763         1         0
     12766         1         0     12769         1         0     12772         1         0
     12774         1         0     12776         1         0     12779         1         0
     12782         1         0     12785         1         0     12788         1         0
     12791         1         0     12794         1         0     12797         1         0
     12801         1         0     12804         1         0     12807         1         0
     12810         1         0     12813         1         0     12816         1         0
     12819         1         0     12822         1         0     12825         1         0
     12828         1         0     12831         1         0     12834         1         0
     12837         1         0     12840         1         0     12844         2         0
     12860         2         0     12871         1         0     12879         1         0
     12888         1         0     12891         1         0     12894         1         0
     12897         1         0     12900         1         0     12903         1         0
     12906         1         0     12908         1         0     12910         1         0
     12913         1         0     12916         1         0     12919         1         0
     12922         1         0     12925         1         0     12928         1         0
     12931         1         0     12935         1         0     12938         1         0
     12941         1         0     12944         1         0     12947         1         0
     12950         1         0     12953         1         0     12956         1         0
     12959         1         0     12962         1         0     12965         1         0
     12968         1         0     12971         1         0     12974         1         0
     12978         2         0     12994         2         0     13005         1         0
     13013         1         0     13022         1         0     13025         1         0
     13028         1         0     13031         1         0     13034         1         0
     13037         1         0     13040         1         0     13042         1         0
     13044         1         0     13047         1         0     13050         1         0
     13053         1         0     13056         1         0     13059         1         0
     13062         1         0     13065         1         0     13069         1         0
     13072         1         0     13075         1         0     13078         1         0
     13081         1         0     13084         1         0     13087         1         0
     13090         1         0     13093         1         0     13096         1         0
     13099         1         0     13102         1         0     13105         1         0
     13108         1         0     13112         2         0     13128         2         0
     13139         1         0     13147         1         0     13156         1         0
     13159         1         0     13162         1         0     13165         1         0
     13168         1         0     13171         1         0     13174         1         0
     13176         1         0     13178         1         0     13181         1         0
     13184         1         0     13187         1         0     13190         1         0
     13193         1         0     13196         1         0     13199         1         0
     13203         1         0     13206         1         0     13209         1         0
     13212         1         0     13215         1         0     13218         1         0
     13221         1         0     13224         1         0     13227         1         0
     13230         1         0     13233         1         0     13236         1         0
     13239         1         0     13242         1         0     13246         2         0
     13262         2         0     13273         1         0     13281         1         0
     13290         1         0     13293         1         0     13296         1         0
     13299         1         0     13302         1         0     13305         1         0
     13308         1         0     13310         1         0     13312         1         0
     13315         1         0     13318         1         0     13321         1         0
     13324         1         0     13327         1         0     13330         1         0
     13333         1         0     13337         1         0     13340         1         0
     13343         1         0     13346         1         0     13349         1         0
     13352         1         0     13355         1         0     13358         1         0
     13361         1         0     13364         1         0     13367         1         0
     13370         1         0     13373         1         0     13376         1         0
     13380         2         0     13396         2         0     13407         1         0
     13415         1         0     13424         1         0     13427         1         0
     13430         1         0     13433         1         0     13436         1         0
     13439         1         0     13442         1         0     13444         1         0
     13446         1         0     13449         1         0     13452         1         0
     13455         1         0     13458         1         0     13461         1         0
     13464         1         0     13467         1         0     13471         1         0
     13474         1         0     13477         1         0     13480         1         0
     13483         1         0     13486         1         0     13489         1         0
     13492         1         0     13495         1         0     13498         1         0
     13501         1         0     13504         1         0     13507         1         0
     13510         1         0     13514         2         0     13530         2         0
     13541         1         0     13549         1         0     13558         1         0
     13561         1         0     13564         1         0     13567         1         0
     13570         1         0     13573         1         0     13576         1         0
     13578         1         0     13580         1         0     13583         1         0
     13586         1         0     13589         1         0     13592         1         0
     13595         1         0     13598         1         0     13601         1         0
     13605         1         0     13608         1         0     13611         1         0
     13614         1         0     13617         1         0     13620         1         0
     13623         1         0     13626         1         0     13629         1         0
     13632         1         0     13635         1         0     13638         1         0
     13641         1         0     13644         1         0     13648         2         0
     13664         2         0     13675         1         0     13683         1         0
     13692         1         0     13695         1         0     13698         1         0
     13701         1         0     13704         1         0     13707         1         0
     13710         1         0     13712         1         0     13714         1         0
     13717         1         0     13720         1         0     13723         1         0
     13726         1         0     13729         1         0     13732         1         0
     13735         1         0     13739         1         0     13742         1         0
     13745         1         0     13748         1         0     13751         1         0
     13754         1         0     13757         1         0     13760         1         0
     13763         1         0     13766         1         0     13769         1         0
     13772         1         0     13775         1         0     13778         1         0
     13782         2         0     13798         2         0     13809         1         0
     13817         1         0     13826         1         0     13829         1         0
     13832         1         0     13835         1         0     13838         1         0
     13841         1         0     13844         1         0     13846         1         0
     13848         1         0     13851         1         0     13854         1         0
     13857         1         0     13860         1         0     13863         1         0
     13866         1         0     13869         1         0     13873         1         0
     13876         1         0     13879         1         0     13882         1         0
     13885         1         0     13888         1         0     13891         1         0
     13894         1         0     13897         1         0     13900         1         0
     13903         1         0     13906         1         0     13909         1         0
     13912         1         0     13916         2         0     13932         2         0
     13943         1         0     13951         1         0     13960         1         0
     13963         1         0     13966         1         0     13969         1         0
     13972         1         0     13975         1         0     13978         1         0
     13980         1         0     13982         1         0     13985         1         0
     13988         1         0     13991         1         0     13994         1         0
     13997         1         0     14000         1         0     14003         1         0
     14007         1         0     14010         1         0     14013         1         0
     14016         1         0     14019         1         0     14022         1         0
     14025         1         0     14028         1         0     14031         1         0
     14034         1         0     14037         1         0     14040         1         0
     14043         1         0     14046         1         0     14050         2         0
     14066         2         0     14077         1         0     14085         1         0
     14094         1         0     14097         1         0     14100         1         0
     14103         1         0     14106         1         0     14109         1         0
     14112         1         0     14114         1         0     14116         1         0
     14119         1         0     14122         1         0     14125         1         0
     14128         1         0     14131         1         0     14134         1         0
     14137         1         0     14141         1         0     14144         1         0
     14147         1         0     14150         1         0     14153         1         0
     14156         1         0     14159         1         0     14162         1         0
     14165         1         0     14168         1         0     14171         1         0
     14174         1         0     14177         1         0     14180         1         0
     14184         2         0     14200         2         0     14211         1         0
     14219         1         0     14228         1         0     14231         1         0
     14234         1         0     14237         1         0     14240         1         0
     14243         1         0     14246         1         0     14248         1         0
     14250         1         0     14253         1         0     14256         1         0
     14259         1         0     14262         1         0     14265         1         0
     14268         1         0     14271         1         0     14275         1         0
     14278         1         0     14281         1         0     14284         1         0
     14287         1         0     14290         1         0     14293         1         0
     14296         1         0     14299         1         0     14302         1         0
     14305         1         0     14308         1         0     14311         1         0
     14314         1         0     14318         2         0     14334         2         0
     14345         1         0     14353         1         0     14362         1         0
     14365         1         0     14368         1         0     14371         1         0
     14374         1         0     14377         1         0     14380         1         0
     14382         1         0     14384         1         0     14387         1         0
     14390         1         0     14393         1         0     14396         1         0
     14399         1         0     14402         1         0     14405         1         0
     14409         1         0     14412         1         0     14415         1         0
     14418         1         0     14421         1         0     14424         1         0
     14427         1         0     14430         1         0     14433         1         0
     14436         1         0     14439         1         0     14442         1         0
     14445         1         0     14448         1         0     14452         2         0
     14468         2         0     14479         1         0     14487         1         0
     14496         1         0     14499         1         0     14502         1         0
     14505         1         0     14508         1         0     14511         1         0
     14514         1         0     14516         1         0     14518         1         0
     14521         1         0     14524         1         0     14527         1         0
     14530         1         0     14533         1         0     14536         1         0
     14539         1         0     14543         1         0     14546         1         0
     14549         1         0     14552         1         0     14555         1         0
     14558         1         0     14561         1         0     14564         1         0
     14567         1         0     14570         1         0     14573         1         0
     14576         1         0     14579         1         0     14582         1         0
     14586         2         0     14602         2         0     14613         1         0
     14621         1         0     14630         1         0     14633         1         0
     14636         1         0     14639         1         0     14642         1         0
     14645         1         0     14648         1         0     14650         1         0
     14652         1         0     14655         1         0     14658         1         0
     14661         1         0     14664         1         0     14667         1         0
     14670         1         0     14673         1         0     14677         1         0
     14680         1         0     14683         1         0     14686         1         0
     14689         1         0     14692         1         0     14695         1         0
     14698         1         0     14701         1         0     14704         1         0
     14707         1         0     14710         1         0     14713         1         0
     14716         1         0     14720         2         0     14736         2         0
     14747         1         0     14755         1         0     14764         1         0
     14767         1         0     14770         1         0     14773         1         0
     14776         1         0     14779         1         0     14782         1         0
     14784         1         0     14786         1         0     14789         1         0
     14792         1         0     14795         1         0     14798         1         0
     14801         1         0     14804         1         0     14807         1         0
     14811         1         0     14814         1         0     14817         1         0
     14820         1         0     14823         1         0     14826         1         0
     14829         1         0     14832         1         0     14835         1         0
     14838         1         0     14841         1         0     14844         1         0
     14847         1         0     14850         1         0     14854         2         0
     14860         2         0     14863         2         0     14874         1         0
     14882         1         0     14891         1         0     14894         1         0
     14897         1         0     14900         1         0     14903         1         0
     14906         1         0     14909         1         0     14911         1         0
     14913         1         0     14916         1         0     14919         1         0
     14922         1         0     14925         1         0     14928         1         0
     14931         1         0     14934         1         0     14938         1         0
     14941         1         0     14944         1         0     14947         1         0
     14950         1         0     14953         1         0     14956         1         0
     14959         1         0     14962         1         0     14965         1         0
     14968         1         0     14971         1         0     14974         1         0
     14977         1         0     14981         2         0     14997         2         0
     15008         1         0     15016         1         0     15025         1         0
     15028         1         0     15031         1         0     15034         1         0
     15037         1         0     15040         1         0     15043         1         0
     15045         1         0     15047         1         0     15050         1         0
     15053         1         0     15056         1         0     15059         1         0
     15062         1         0     15065         1         0     15068         1         0
     15072         1         0     15075         1         0     15078         1         0
     15081         1         0     15084         1         0     15087         1         0
     15090         1         0     15093         1         0     15096         1         0
     15099         1         0     15102         1         0     15105         1         0
     15108         1         0     15111         1         0     15115         2         0
     15131         2         0     15142         1         0     15150         1         0
     15159         1         0     15162         1         0     15165         1         0
     15168         1         0     15171         1         0     15174         1         0
     15177         1         0     15179         1         0     15181         1         0
     15184         1         0     15187         1         0     15190         1         0
     15193         1         0     15196         1         0     15199         1         0
     15202         1         0     15206         1         0     15209         1         0
     15212         1         0     15215         1         0     15218         1         0
     15221         1         0     15224         1         0     15227         1         0
     15230         1         0     15233         1         0     15236         1         0
     15239         1         0     15242         1         0     15245         1         0
     15249         2         0     15265         2         0     15276         1         0
     15284         1         0     15293         1         0     15296         1         0
     15299         1         0     15302         1         0     15305         1         0
     15308         1         0     15311         1         0     15313         1         0
     15315         1         0     15318         1         0     15321         1         0
     15324         1         0     15327         1         0     15330         1         0
     15333         1         0     15336         1         0     15340         1         0
     15343         1         0     15346         1         0     15349         1         0
     15352         1         0     15355         1         0     15358         1         0
     15361         1         0     15364         1         0     15367         1         0
     15370         1         0     15373         1         0     15376         1         0
     15379         1         0     15383         2         0     15399         2         0
     15410         1         0     15418         1         0     15427         1         0
     15430         1         0     15433         1         0     15436         1         0
     15439         1         0     15442         1         0     15445         1         0
     15447         1         0     15449         1         0     15452         1         0
     15455         1         0     15458         1         0     15461         1         0
     15464         1         0     15467         1         0     15470         1         0
     15474         1         0     15477         1         0     15480         1         0
     15483         1         0     15486         1         0     15489         1         0
     15492         1         0     15495         1         0     15498         1         0
     15501         1         0     15504         1         0     15507         1         0
     15510         1         0     15513         1         0     15517         2         0
     15533         2         0     15544         1         0     15552         1         0
     15561         1         0     15564         1         0     15567         1         0
     15570         1         0     15573         1         0     15576         1         0
     15579         1         0     15581         1         0     15583         1         0
     15586         1         0     15589         1         0     15592         1         0
     15595         1         0     15598         1         0     15601         1         0
     15604         1         0     15608         1         0     15611         1         0
     15614         1         0     15617         1         0     15620         1         0
     15623         1         0     15626         1         0     15629         1         0
     15632         1         0     15635         1         0     15638         1         0
     15641         1         0     15644         1         0     15647         1         0
     15651         2         0     15667         2         0     15678         1         0
     15686         1         0     15695         1         0     15698         1         0
     15701         1         0     15704         1         0     15707         1         0
     15710         1         0     15713         1         0     15715         1         0
     15717         1         0     15720         1         0     15723         1         0
     15726         1         0     15729         1         0     15732         1         0
     15735         1         0     15738         1         0     15742         1         0
     15745         1         0     15748         1         0     15751         1         0
     15754         1         0     15757         1         0     15760         1         0
     15763         1         0     15766         1         0     15769         1         0
     15772         1         0     15775         1         0     15778         1         0
     15781         1         0     15785         2         0     15791         2         0
     15794         2         0     15805         1         0     15813         1         0
     15822         1         0     15825         1         0     15828         1         0
     15831         1         0     15834         1         0     15837         1         0
     15840         1         0     15842         1         0     15844         1         0
     15847         1         0     15850         1         0     15853         1         0
     15856         1         0     15859         1         0     15862         1         0
     15865         1         0     15869         1         0     15872         1         0
     15875         1         0     15878         1         0     15881         1         0
     15884         1         0     15887         1         0     15890         1         0
     15893         1         0     15896         1         0     15899         1         0
     15902         1         0     15905         1         0     15908         1         0
     15912         2         0     15928         2         0     15939         1         0
     15947         1         0     15956         1         0     15959         1         0
     15962         1         0     15965         1         0     15968         1         0
     15971         1         0     15974         1         0     15976         1         0
     15978         1         0     15981         1         0     15984         1         0
     15987         1         0     15990         1         0     15993         1         0
     15996         1         0     15999         1         0     16003         1         0
     16006         1         0     16009         1         0     16012         1         0
     16015         1         0     16018         1         0     16021         1         0
     16024         1         0     16027         1         0     16030         1         0
     16033         1         0     16036         1         0     16039         1         0
     16042         1         0     16046         2         0     16062         2         0
     16073         1         0     16081         1         0     16090         1         0
     16093         1         0     16096         1         0     16099         1         0
     16102         1         0     16105         1         0     16108         1         0
     16110         1         0     16112         1         0     16115         1         0
     16118         1         0     16121         1         0     16124         1         0
     16127         1         0     16130         1         0     16133         1         0
     16137         1         0     16140         1         0     16143         1         0
     16146         1         0     16149         1         0     16152         1         0
     16155         1         0     16158         1         0     16161         1         0
     16164         1         0     16167         1         0     16170         1         0
     16173         1         0     16176         1         0     16180         2         0
     16186         2         0     16189         2         0     16200         1         0
     16208         1         0     16217         1         0     16220         1         0
     16223         1         0     16226         1         0     16229         1         0
     16232         1         0     16235         1         0     16237         1         0
     16239         1         0     16242         1         0     16245         1         0
     16248         1         0     16251         1         0     16254         1         0
     16257         1         0     16260         1         0     16264         1         0
     16267         1         0     16270         1         0     16273         1         0
     16276         1         0     16279         1         0     16282         1         0
     16285         1         0     16288         1         0     16291         1         0
     16294         1         0     16297         1         0     16300         1         0
     16303         1         0     16307         2         0     16323         2         0
     16334         1         0     16342         1         0     16351         1         0
     16354         1         0     16357         1         0     16360         1         0
     16363         1         0     16366         1         0     16369         1         0
     16371         1         0     16373         1         0     16376         1         0
     16379         1         0     16382         1         0     16385         1         0
     16388         1         0     16391         1         0     16394         1         0
     16398         1         0     16401         1         0     16404         1         0
     16407         1         0     16410         1         0     16413         1         0
     16416         1         0     16419         1         0     16422         1         0
     16425         1         0     16428         1         0     16431         1         0
     16434         1         0     16437         1         0     16441         2         0
     16457         2         0     16468         1         0     16476         1         0
     16485         1         0     16488         1         0     16491         1         0
     16494         1         0     16497         1         0     16500         1         0
     16503         1         0     16505         1         0     16507         1         0
     16510         1         0     16513         1         0     16516         1         0
     16519         1         0     16522         1         0     16525         1         0
     16528         1         0     16532         1         0     16535         1         0
     16538         1         0     16541         1         0     16544         1         0
     16547         1         0     16550         1         0     16553         1         0
     16556         1         0     16559         1         0     16562         1         0
     16565         1         0     16568         1         0     16571         1         0
     16575         2         0     16581         2         0     16584         2         0
     16595         1         0     16603         1         0     16612         1         0
     16615         1         0     16618         1         0     16621         1         0
     16624         1         0     16627         1         0     16630         1         0
     16632         1         0     16634         1         0     16637         1         0
     16640         1         0     16643         1         0     16646         1         0
     16649         1         0     16652         1         0     16655         1         0
     16659         1         0     16662         1         0     16665         1         0
     16668         1         0     16671         1         0     16674         1         0
     16677         1         0     16680         1         0     16683         1         0
     16686         1         0     16689         1         0     16692         1         0
     16695         1         0     16698         1         0     16702         2         0
     16718         2         0     16729         1         0     16737         1         0
     16746         1         0     16749         1         0     16752         1         0
     16755         1         0     16758         1         0     16761         1         0
     16764         1         0     16766         1         0     16768         1         0
     16771         1         0     16774         1         0     16777         1         0
     16780         1         0     16783         1         0     16786         1         0
     16789         1         0     16793         1         0     16796         1         0
     16799         1         0     16802         1         0     16805         1         0
     16808         1         0     16811         1         0     16814         1         0
     16817         1         0     16820         1         0     16823         1         0
     16826         1         0     16829         1         0     16832         1         0
     16836         2         0     16852         2         0     16863         1         0
     16871         1         0     16880         1         0     16883         1         0
     16886         1         0     16889         1         0     16892         1         0
     16895         1         0     16898         1         0     16900         1         0
     16902         1         0     16905         1         0     16908         1         0
     16911         1         0     16914         1         0     16917         1         0
     16920         1         0     16923         1         0     16927         1         0
     16930         1         0     16933         1         0     16936         1         0
     16939         1         0     16942         1         0     16945         1         0
     16948         1         0     16951         1         0     16954         1         0
     16957         1         0     16960         1         0     16963         1         0
     16966         1         0     16970         2         0     16986         2         0
     16997         1         0     17005         1         0     17014         1         0
     17017         1         0     17020         1         0     17023         1         0
     17026         1         0     17029         1         0     17032         1         0
     17034         1         0     17036         1         0     17039         1         0
     17042         1         0     17045         1         0     17048         1         0
     17051         1         0     17054         1         0     17057         1         0
     17061         1         0     17064         1         0     17067         1         0
     17070         1         0     17073         1         0     17076         1         0
     17079         1         0     17082         1         0     17085         1         0
     17088         1         0     17091         1         0     17094         1         0
     17097         1         0     17100         1         0     17104         2         0
     17120         2         0     17131         1         0     17139         1         0
     17148         1         0     17151         1         0     17154         1         0
     17157         1         0     17160         1         0     17163         1         0
     17166         1         0     17168         1         0     17170         1         0
     17173         1         0     17176         1         0     17179         1         0
     17182         1         0     17185         1         0     17188         1         0
     17191         1         0     17195         1         0     17198         1         0
     17201         1         0     17204         1         0     17207         1         0
     17210         1         0     17213         1         0     17216         1         0
     17219         1         0     17222         1         0     17225         1         0
     17228         1         0     17231         1         0     17234         1         0
     17238         1         0     17241         1         0     17244         1         0
     17247         1         0     17250         1         0     17253         1         0
     17256         1         0     17259         1         0     17262         1         0
     17265         1         0     17268         1         0     17271         1         0
     17274         1         0     17277         1         0     17280         1         0
     17283         1         0     17286         1         0     17289         1         0
     17292         1         0     17295         1         0     17298         1         0
     17301         1         0     17304         1         0     17307         1         0
     17310         1         0     17313         1         0     17316         1         0
     17319         1         0     17322         1         0     17325         1         0
     17328         1         0     17331         1         0     17334         1         0
     17337         1         0     17340         1         0     17343         1         0
     17346         1         0     17349         1         0     17352         1         0
     17355         1         0     17358         1         0     17361         1         0
     17364         1         0     17367         1         0     17370         1         0
     17373         1         0     17376         1         0     17379         1         0
     17382         1         0     17385         1         0     17388         1         0
     17391         1         0     17394         1         0     17397         1         0
     17400         1         0     17403         1         0     17406         1         0
     17409         1         0     17412         1         0     17415         1         0
     17418         1         0     17421         1         0     17424         1         0
     17427         1         0     17430         1         0     17433         1         0
     17436         1         0     17439         1         0     17442         1         0
     17445         1         0     17448         1         0     17451         1         0
     17454         1         0     17457         1         0     17460         1         0
     17463         1         0     17466         1         0     17469         1         0
     17472         1         0     17475         1         0     17478         1         0
     17481         1         0     17484         1         0     17487         1         0
     17490         1         0     17493         1         0     17496         1         0
     17499         1         0     17502         1         0     17505         1         0
     17508         1         0     17511         1         0     17514         1         0
     17517         1         0     17520         1         0     17523         1         0
     17526         1         0     17529         1         0     17532         1         0
     17535         1         0     17538         1         0     17541         1         0
     17544         1         0     17547         1         0     17550         1         0
     17553         1         0     17556         1         0     17559         1         0
     17562         1         0     17565         1         0     17568         1         0
     17571         1         0     17574         1         0     17577         1         0
     17580         1         0     17583         1         0     17586         1         0
     17589         1         0     17592         1         0     17595         1         0
     17598         1         0     17601         1         0     17604         1         0
     17607         1         0     17610         1         0     17613         1         0
     17616         1         0     17619         1         0     17622         1         0
     17625         1         0     17628         1         0     17631         1         0
     17634         1         0     17637         1         0     17640         1         0
     17643         1         0     17646         1         0     17649         1         0
     17652         1         0     17655         1         0     17658         1         0
     17661         1         0     17664         1         0     17667         1         0
     17670         1         0     17673         1         0     17676         1         0
     17679         1         0     17682         1         0     17685         1         0
     17688         1         0     17691         1         0     17694         1         0
     17697         1         0     17700         1         0     17703         1         0
     17706         1         0     17709         1         0     17712         1         0
     17715         1         0     17718         1         0     17721         1         0
     17724         1         0     17727         1         0     17730         1         0
     17733         1         0     17736         1         0     17739         1         0
     17742         1         0     17745         1         0     17748         1         0
     17751         1         0     17754         1         0     17757         1         0
     17760         1         0     17763         1         0     17766         1         0
     17769         1         0     17772         1         0     17775         1         0
     17778         1         0     17781         1         0     17784         1         0
     17787         1         0     17790         1         0     17793         1         0
     17796         1         0     17799         1         0     17802         1         0
     17805         1         0     17808         1         0     17811         1         0
     17814         1         0     17817         1         0     17820         1         0
     17823         1         0     17826         1         0     17829         1         0
     17832         1         0     17835         1         0     17838         1         0
     17841         1         0     17844         1         0     17847         1         0
     17850         1         0     17853         1         0     17856         1         0
     17859         1         0     17862         1         0     17865         1         0
     17868         1         0     17871         1         0     17874         1         0
     17877         1         0     17880         1         0     17883         1         0
     17886         1         0     17889         1         0     17892         1         0
     17895         1         0     17898         1         0     17901         1         0
     17904         1         0     17907         1         0     17910         1         0
     17913         1         0     17916         1         0     17919         1         0
     17922         1         0     17925         1         0     17928         1         0
     17931         1         0     17934         1         0     17937         1         0
     17940         1         0     17943         1         0     17946         1         0
     17949         1         0     17952         1         0     17955         1         0
     17958         1         0     17961         1         0     17964         1         0
     17967         1         0     17970         1         0     17973         1         0
     17976         1         0     17979         1         0     17982         1         0
     17985         1         0     17988         1         0     17991         1         0
     17994         1         0     17997         1         0     18000         1         0
     18003         1         0     18006         1         0     18009         1         0
     18012         1         0     18015         1         0     18018         1         0
     18021         1         0     18024         1         0     18027         1         0
     18030         1         0     18033         1         0     18036         1         0
     18039         1         0     18042         1         0     18045         1         0
     18048         1         0     18051         1         0     18054         1         0
     18057         1         0     18060         1         0     18063         1         0
     18066         1         0     18069         1         0     18072         1         0
     18075         1         0     18078         1         0     18081         1         0
     18084         1         0     18087         1         0     18090         1         0
     18093         1         0     18096         1         0     18099         1         0
     18102         1         0     18105         1         0     18108         1         0
     18111         1         0     18114         1         0     18117         1         0
     18120         1         0     18123         1         0     18126         1         0
     18129         1         0     18132         1         0     18135         1         0
     18138         1         0     18141         1         0     18144         1         0
     18147         1         0     18150         1         0     18153         1         0
     18156         1         0     18159         1         0     18162         1         0
     18165         1         0     18168         1         0     18171         1         0
     18174         1         0     18177         1         0     18180         1         0
     18183         1         0     18186         1         0     18189         1         0
     18192         1         0     18195         1         0     18198         1         0
     18201         1         0     18204         1         0     18207         1         0
     18210         1         0     18213         1         0     18216         1         0
     18219         1         0     18222         1         0     18225         1         0
     18228         1         0     18231         1         0     18234         1         0
     18237         1         0     18240         1         0     18243         1         0
     18246         1         0     18249         1         0     18252         1         0
     18255         1         0     18258         1         0     18261         1         0
     18264         1         0     18267         1         0     18270         1         0
     18273         1         0     18276         1         0     18279         1         0
     18282         1         0     18285         1         0     18288         1         0
     18291         1         0     18294         1         0     18297         1         0
     18300         1         0     18303         1         0     18306         1         0
     18309         1         0     18312         1         0     18315         1         0
     18318         1         0     18321         1         0     18324         1         0
     18327         1         0     18330         1         0     18333         1         0
     18336         1         0     18339         1         0     18342         1         0
     18345         1         0     18348         1         0     18351         1         0
     18354         1         0     18357         1         0     18360         1         0
     18363         1         0     18366         1         0     18369         1         0
     18372         1         0     18375         1         0     18378         1         0
     18381         1         0     18384         1         0     18387         1         0
     18390         1         0     18393         1         0     18396         1         0
     18399         1         0     18402         1         0     18405         1         0
     18408         1         0     18411         1         0     18414         1         0
     18417         1         0     18420         1         0     18423         1         0
     18426         1         0     18429         1         0     18432         1         0
     18435         1         0     18438         1         0     18441         1         0
     18444         1         0     18447         1         0     18450         1         0
     18453         1         0     18456         1         0     18459         1         0
     18462         1         0     18465         1         0     18468         1         0
     18471         1         0     18474         1         0     18477         1         0
     18480         1         0     18483         1         0     18486         1         0
     18489         1         0     18492         1         0     18495         1         0
     18498         1         0     18501         1         0     18504         1         0
     18507         1         0     18510         1         0     18513         1         0
     18516         1         0     18519         1         0     18522         1         0
     18525         1         0     18528         1         0     18531         1         0
     18534         1         0     18537         1         0     18540         1         0
     18543         1         0     18546         1         0     18549         1         0
     18552         1         0     18555         1         0     18558         1         0
     18561         1         0     18564         1         0     18567         1         0
     18570         1         0     18573         1         0     18576         1         0
     18579         1         0     18582         1         0     18585         1         0
     18588         1         0     18591         1         0     18594         1         0
     18597         1         0     18600         1         0     18603         1         0
     18606         1         0     18609         1         0     18612         1         0
     18615         1         0     18618         1         0     18621         1         0
     18624         1         0     18627         1         0     18630         1         0
     18633         1         0     18636         1         0     18639         1         0
     18642         1         0     18645         1         0     18648         1         0
     18651         1         0     18654         1         0     18657         1         0
     18660         1         0     18663         1         0     18666         1         0
     18669         1         0     18672         1         0     18675         1         0
     18678         1         0     18681         1         0     18684         1         0
     18687         1         0     18690         1         0     18693         1         0
     18696         1         0     18699         1         0     18702         1         0
     18705         1         0     18708         1         0     18711         1         0
     18714         1         0     18717         1         0     18720         1         0
     18723         1         0     18726         1         0     18729         1         0
     18732         1         0     18735         1         0     18738         1         0
     18741         1         0     18744         1         0     18747         1         0
     18750         1         0     18753         1         0     18756         1         0
     18759         1         0     18762         1         0     18765         1         0
     18768         1         0     18771         1         0     18774         1         0
     18777         1         0     18780         1         0     18783         1         0
     18786         1         0     18789         1         0     18792         1         0
     18795         1         0     18798         1         0     18801         1         0
     18804         1         0     18807         1         0     18810         1         0
     18813         1         0     18816         1         0     18819         1         0
     18822         1         0     18825         1         0     18828         1         0
     18831         1         0     18834         1         0     18837         1         0
     18840         1         0     18843         1         0     18846         1         0
     18849         1         0     18852         1         0     18855         1         0
     18858         1         0     18861         1         0     18864         1         0
     18867         1         0     18870         1         0     18873         1         0
     18876         1         0     18879         1         0     18882         1         0
     18885         1         0     18888         1         0     18891         1         0
     18894         1         0     18897         1         0     18900         1         0
     18903         1         0     18906         1         0     18909         1         0
     18912         1         0     18915         1         0     18918         1         0
     18921         1         0     18924         1         0     18927         1         0
     18930         1         0     18933         1         0     18936         1         0
     18939         1         0     18942         1         0     18945         1         0
     18948         1         0     18951         1         0     18954         1         0
     18957         1         0     18960         1         0     18963         1         0
     18966         1         0     18969         1         0     18972         1         0
     18975         1         0     18978         1         0     18981         1         0
     18984         1         0     18987         1         0     18990         1         0
     18993         1         0     18996         1         0     18999         1         0
     19002         1         0     19005         1         0     19008         1         0
     19011         1         0     19014         1         0     19017         1         0
     19020         1         0     19023         1         0     19026         1         0
     19029         1         0     19032         1         0     19035         1         0
     19038         1         0     19041         1         0     19044         1         0
     19047         1         0     19050         1         0     19053         1         0
     19056         1         0     19059         1         0     19062         1         0
     19065         1         0     19068         1         0     19071         1         0
     19074         1         0     19077         1         0     19080         1         0
     19083         1         0     19086         1         0     19089         1         0
     19092         1         0     19095         1         0     19098         1         0
     19101         1         0     19104         1         0     19107         1         0
     19110         1         0     19113         1         0     19116         1         0
     19119         1         0     19122         1         0     19125         1         0
     19128         1         0     19131         1         0     19134         1         0
     19137         1         0     19140         1         0     19143         1         0
     19146         1         0     19149         1         0     19152         1         0
     19155         1         0     19158         1         0     19161         1         0
     19164         1         0     19167         1         0     19170         1         0
     19173         1         0     19176         1         0     19179         1         0
     19182         1         0     19185         1         0     19188         1         0
     19191         1         0     19194         1         0     19197         1         0
     19200         1         0     19203         1         0     19206         1         0
     19209         1         0     19212         1         0     19215         1         0
     19218         1         0     19221         1         0     19224         1         0
     19227         1         0     19230         1         0     19233         1         0
     19236         1         0     19239         1         0     19242         1         0
     19245         1         0     19248         1         0     19251         1         0
     19254         1         0     19257         1         0     19260         1         0
     19263         1         0     19266         1         0     19269         1         0
     19272         1         0     19275         1         0     19278         1         0
     19281         1         0     19284         1         0     19287         1         0
     19290         1         0     19293         1         0     19296         1         0
     19299         1         0     19302         1         0     19305         1         0
     19308         1         0     19311         1         0     19314         1         0
     19317         1         0     19320         1         0     19323         1         0
     19326         1         0     19329         1         0     19332         1         0
     19335         1         0     19338         1         0     19341         1         0
     19344         1         0     19347         1         0     19350         1         0
     19353         1         0     19356         1         0     19359         1         0
     19362         1         0     19365         1         0     19368         1         0
     19371         1         0     19374         1         0     19377         1         0
     19380         1         0     19383         1         0     19386         1         0
     19389         1         0     19392         1         0     19395         1         0
     19398         1         0     19401         1         0     19404         1         0
     19407         1         0     19410         1         0     19413         1         0
     19416         1         0     19419         1         0     19422         1         0
     19425         1         0     19428         1         0     19431         1         0
     19434         1         0     19437         1         0     19440         1         0
     19443         1         0     19446         1         0     19449         1         0
     19452         1         0     19455         1         0     19458         1         0
     19461         1         0     19464         1         0     19467         1         0
     19470         1         0     19473         1         0     19476         1         0
     19479         1         0     19482         1         0     19485         1         0
     19488         1         0     19491         1         0     19494         1         0
     19497         1         0     19500         1         0     19503         1         0
     19506         1         0     19509         1         0     19512         1         0
     19515         1         0     19518         1         0     19521         1         0
     19524         1         0     19527         1         0     19530         1         0
     19533         1         0     19536         1         0     19539         1         0
     19542         1         0     19545         1         0     19548         1         0
     19551         1         0     19554         1         0     19557         1         0
     19560         1         0     19563         1         0     19566         1         0
     19569         1         0     19572         1         0     19575         1         0
     19578         1         0     19581         1         0     19584         1         0
     19587         1         0     19590         1         0     19593         1         0
     19596         1         0     19599         1         0     19602         1         0
     19605         1         0     19608         1         0     19611         1         0
     19614         1         0     19617         1         0     19620         1         0
     19623         1         0     19626         1         0     19629         1         0
     19632         1         0     19635         1         0     19638         1         0
     19641         1         0     19644         1         0     19647         1         0
     19650         1         0     19653         1         0     19656         1         0
     19659         1         0     19662         1         0     19665         1         0
     19668         1         0     19671         1         0     19674         1         0
     19677         1         0     19680         1         0     19683         1         0
     19686         1         0     19689         1         0     19692         1         0
     19695         1         0     19698         1         0     19701         1         0
     19704         1         0     19707         1         0     19710         1         0
     19713         1         0     19716         1         0     19719         1         0
     19722         1         0     19725         1         0     19728         1         0
     19731         1         0     19734         1         0     19737         1         0
     19740         1         0     19743         1         0     19746         1         0
     19749         1         0     19752         1         0     19755         1         0
     19758         1         0     19761         1         0     19764         1         0
     19767         1         0     19770         1         0     19773         1         0
     19776         1         0     19779         1         0     19782         1         0
     19785         1         0     19788         1         0     19791         1         0
     19794         1         0     19797         1         0     19800         1         0
     19803         1         0     19806         1         0     19809         1         0
     19812         1         0     19815         1         0     19818         1         0
     19821         1         0     19824         1         0     19827         1         0
     19830         1         0     19833         1         0     19836         1         0
     19839         1         0     19842         1         0     19845         1         0
     19848         1         0     19851         1         0     19854         1         0
     19857         1         0     19860         1         0     19863         1         0
     19866         1         0     19869         1         0     19872         1         0
     19875         1         0     19878         1         0     19881         1         0
     19884         1         0     19887         1         0     19890         1         0
     19893         1         0     19896         1         0     19899         1         0
     19902         1         0     19905         1         0     19908         1         0
     19911         1         0     19914         1         0     19917         1         0
     19920         1         0     19923         1         0     19926         1         0
     19929         1         0     19932         1         0     19935         1         0
     19938         1         0     19941         1         0     19944         1         0
     19947         1         0     19950         1         0     19953         1         0
     19956         1         0     19959         1         0     19962         1         0
     19965         1         0     19968         1         0     19971         1         0
     19974         1         0     19977         1         0     19980         1         0
     19983         1         0     19986         1         0     19989         1         0
     19992         1         0     19995         1         0     19998         1         0
     20001         1         0     20004         1         0     20007         1         0
     20010         1         0     20013         1         0     20016         1         0
     20019         1         0     20022         1         0     20025         1         0
     20028         1         0     20031         1         0     20034         1         0
     20037         1         0     20040         1         0     20043         1         0
     20046         1         0     20049         1         0     20052         1         0
     20055         1         0     20058         1         0     20061         1         0
     20064         1         0     20067         1         0     20070         1         0
     20073         1         0     20076         1         0     20079         1         0
     20082         1         0     20085         1         0     20088         1         0
     20091         1         0     20094         1         0     20097         1         0
     20100         1         0     20103         1         0     20106         1         0
     20109         1         0     20112         1         0     20115         1         0
     20118         1         0     20121         1         0     20124         1         0
     20127         1         0     20130         1         0     20133         1         0
     20136         1         0     20139         1         0     20142         1         0
     20145         1         0     20148         1         0     20151         1         0
     20154         1         0     20157         1         0     20160         1         0
     20163         1         0     20166         1         0     20169         1         0
     20172         1         0     20175         1         0     20178         1         0
     20181         1         0     20184         1         0     20187         1         0
     20190         1         0     20193         1         0     20196         1         0
     20199         1         0     20202         1         0     20205         1         0
     20208         1         0     20211         1         0     20214         1         0
     20217         1         0     20220         1         0     20223         1         0
     20226         1         0     20229         1         0     20232         1         0
     20235         1         0     20238         1         0     20241         1         0
     20244         1         0     20247         1         0     20250         1         0
     20253         1         0     20256         1         0     20259         1         0
     20262         1         0     20265         1         0     20268         1         0
     20271         1         0     20274         1         0     20277         1         0
     20280         1         0     20283         1         0     20286         1         0
     20289         1         0     20292         1         0     20295         1         0
     20298         1         0     20301         1         0     20304         1         0
     20307         1         0     20310         1         0     20313         1         0
     20316         1         0     20319         1         0     20322         1         0
     20325         1         0     20328         1         0     20331         1         0
     20334         1         0     20337         1         0     20340         1         0
     20343         1         0     20346         1         0     20349         1         0
     20352         1         0     20355         1         0     20358         1         0
     20361         1         0     20364         1         0     20367         1         0
     20370         1         0     20373         1         0     20376         1         0
     20379         1         0     20382         1         0     20385         1         0
     20388         1         0     20391         1         0     20394         1         0
     20397         1         0     20400         1         0     20403         1         0
     20406         1         0     20409         1         0     20412         1         0
     20415         1         0     20418         1         0     20421         1         0
     20424         1         0     20427         1         0     20430         1         0
     20433         1         0     20436         1         0     20439         1         0
     20442         1         0     20445         1         0     20448         1         0
     20451         1         0     20454         1         0     20457         1         0
     20460         1         0     20463         1         0     20466         1         0
     20469         1         0     20472         1         0     20475         1         0
     20478         1         0     20481         1         0     20484         1         0
     20487         1         0     20490         1         0     20493         1         0
     20496         1         0     20499         1         0     20502         1         0
     20505         1         0     20508         1         0     20511         1         0
     20514         1         0     20517         1         0     20520         1         0
     20523         1         0     20526         1         0     20529         1         0
     20532         1         0     20535         1         0     20538         1         0
     20541         1         0     20544         1         0     20547         1         0
     20550         1         0     20553         1         0     20556         1         0
     20559         1         0     20562         1         0     20565         1         0
     20568         1         0     20571         1         0     20574         1         0
     20577         1         0     20580         1         0     20583         1         0
     20586         1         0     20589         1         0     20592         1         0
     20595         1         0     20598         1         0     20601         1         0
     20604         1         0     20607         1         0     20610         1         0
     20613         1         0     20616         1         0     20619         1         0
     20622         1         0     20625         1         0     20628         1         0
     20631         1         0     20634         1         0     20637         1         0
     20640         1         0     20643         1         0     20646         1         0
     20649         1         0     20652         1         0     20655         1         0
     20658         1         0     20661         1         0     20664         1         0
     20667         1         0     20670         1         0     20673         1         0
     20676         1         0     20679         1         0     20682         1         0
     20685         1         0     20688         1         0     20691         1         0
     20694         1         0     20697         1         0     20700         1         0
     20703         1         0     20706         1         0     20709         1         0
     20712         1         0     20715         1         0     20718         1         0
     20721         1         0     20724         1         0     20727         1         0
     20730         1         0     20733         1         0     20736         1         0
     20739         1         0     20742         1         0     20745         1         0
     20748         1         0     20751         1         0     20754         1         0
     20757         1         0     20760         1         0     20763         1         0
     20766         1         0     20769         1         0     20772         1         0
     20775         1         0     20778         1         0     20781         1         0
     20784         1         0     20787         1         0     20790         1         0
     20793         1         0     20796         1         0     20799         1         0
     20802         1         0     20805         1         0     20808         1         0
     20811         1         0     20814         1         0     20817         1         0
     20820         1         0     20823         1         0     20826         1         0
     20829         1         0     20832         1         0     20835         1         0
     20838         1         0     20841         1         0     20844         1         0
     20847         1         0     20850         1         0     20853         1         0
     20856         1         0     20859         1         0     20862         1         0
     20865         1         0     20868         1         0     20871         1         0
     20874         1         0     20877         1         0     20880         1         0
     20883         1         0     20886         1         0     20889         1         0
     20892         1         0     20895         1         0     20898         1         0
     20901         1         0     20904         1         0     20907         1         0
     20910         1         0     20913         1         0     20916         1         0
     20919         1         0     20922         1         0     20925         1         0
     20928         1         0     20931         1         0     20934         1         0
     20937         1         0     20940         1         0     20943         1         0
     20946         1         0     20949         1         0     20952         1         0
     20955         1         0     20958         1         0     20961         1         0
     20964         1         0     20967         1         0     20970         1         0
     20973         1         0     20976         1         0     20979         1         0
     20982         1         0     20985         1         0     20988         1         0
     20991         1         0     20994         1         0     20997         1         0
     21000         1         0     21003         1         0     21006         1         0
     21009         1         0     21012         1         0     21015         1         0
     21018         1         0     21021         1         0     21024         1         0
     21027         1         0     21030         1         0     21033         1         0
     21036         1         0     21039         1         0     21042         1         0
     21045         1         0     21048         1         0     21051         1         0
     21054         1         0     21057         1         0     21060         1         0
     21063         1         0     21066         1         0     21069         1         0
     21072         1         0     21075         1         0     21078         1         0
     21081         1         0     21084         1         0     21087         1         0
     21090         1         0     21093         1         0     21096         1         0
     21099         1         0     21102         1         0     21105         1         0
     21108         1         0     21111         1         0     21114         1         0
     21117         1         0     21120         1         0     21123         1         0
     21126         1         0     21129         1         0     21132         1         0
     21135         1         0     21138         1         0     21141         1         0
     21144         1         0     21147         1         0     21150         1         0
     21153         1         0     21156         1         0     21159         1         0
     21162         1         0     21165         1         0     21168         1         0
     21171         1         0     21174         1         0     21177         1         0
     21180         1         0     21183         1         0     21186         1         0
     21189         1         0     21192         1         0     21195         1         0
     21198         1         0     21201         1         0     21204         1         0
     21207         1         0     21210         1         0     21213         1         0
     21216         1         0     21219         1         0     21222         1         0
     21225         1         0     21228         1         0     21231         1         0
     21234         1         0     21237         1         0     21240         1         0
     21243         1         0     21246         1         0     21249         1         0
     21252         1         0     21255         1         0     21258         1         0
     21261         1         0     21264         1         0     21267         1         0
     21270         1         0     21273         1         0     21276         1         0
     21279         1         0     21282         1         0     21285         1         0
     21288         1         0     21291         1         0     21294         1         0
     21297         1         0     21300         1         0     21303         1         0
     21306         1         0     21309         1         0     21312         1         0
     21315         1         0     21318         1         0     21321         1         0
     21324         1         0     21327         1         0     21330         1         0
     21333         1         0     21336         1         0     21339         1         0
     21342         1         0     21345         1         0     21348         1         0
     21351         1         0     21354         1         0     21357         1         0
     21360         1         0     21363         1         0     21366         1         0
     21369         1         0     21372         1         0     21375         1         0
     21378         1         0     21381         1         0     21384         1         0
     21387         1         0     21390         1         0     21393         1         0
     21396         1         0     21399         1         0     21402         1         0
     21405         1         0     21408         1         0     21411         1         0
     21414         1         0     21417         1         0     21420         1         0
     21423         1         0     21426         1         0     21429         1         0
     21432         1         0     21435         1         0     21438         1         0
     21441         1         0     21444         1         0     21447         1         0
     21450         1         0     21453         1         0     21456         1         0
     21459         1         0     21462         1         0     21465         1         0
     21468         1         0     21471         1         0     21474         1         0
     21477         1         0     21480         1         0     21483         1         0
     21486         1         0     21489         1         0     21492         1         0
     21495         1         0     21498         1         0     21501         1         0
     21504         1         0     21507         1         0     21510         1         0
     21513         1         0     21516         1         0     21519         1         0
     21522         1         0     21525         1         0     21528         1         0
     21531         1         0     21534         1         0     21537         1         0
     21540         1         0     21543         1         0     21546         1         0
     21549         1         0     21552         1         0     21555         1         0
     21558         1         0     21561         1         0     21564         1         0
     21567         1         0     21570         1         0     21573         1         0
     21576         1         0     21579         1         0     21582         1         0
     21585         1         0     21588         1         0     21591         1         0
     21594         1         0     21597         1         0     21600         1         0
     21603         1         0     21606         1         0     21609         1         0
     21612         1         0     21615         1         0     21618         1         0
     21621         1         0     21624         1         0     21627         1         0
     21630         1         0     21633         1         0     21636         1         0
     21639         1         0     21642         1         0     21645         1         0
     21648         1         0     21651         1         0     21654         1         0
     21657         1         0     21660         1         0     21663         1         0
     21666         1         0     21669         1         0     21672         1         0
     21675         1         0     21678         1         0     21681         1         0
     21684         1         0     21687         1         0     21690         1         0
     21693         1         0     21696         1         0     21699         1         0
     21702         1         0     21705         1         0     21708         1         0
     21711         1         0     21714         1         0     21717         1         0
     21720         1         0     21723         1         0     21726         1         0
     21729         1         0     21732         1         0     21735         1         0
     21738         1         0     21741         1         0     21744         1         0
     21747         1         0     21750         1         0     21753         1         0
     21756         1         0     21759         1         0     21762         1         0
     21765         1         0     21768         1         0     21771         1         0
     21774         1         0     21777         1         0     21780         1         0
     21783         1         0     21786         1         0     21789         1         0
     21792         1         0     21795         1         0     21798         1         0
     21801         1         0     21804         1         0     21807         1         0
     21810         1         0     21813         1         0     21816         1         0
     21819         1         0     21822         1         0     21825         1         0
     21828         1         0     21831         1         0     21834         1         0
     21837         1         0     21840         1         0     21843         1         0
     21846         1         0     21849         1         0     21852         1         0
     21855         1         0     21858         1         0     21861         1         0
     21864         1         0     21867         1         0     21870         1         0
     21873         1         0     21876         1         0     21879         1         0
     21882         1         0     21885         1         0     21888         1         0
     21891         1         0     21894         1         0     21897         1         0
     21900         1         0     21903         1         0     21906         1         0
     21909         1         0     21912         1         0     21915         1         0
     21918         1         0     21921         1         0     21924         1         0
     21927         1         0     21930         1         0     21933         1         0
     21936         1         0     21939         1         0     21942         1         0
     21945         1         0     21948         1         0     21951         1         0
     21954         1         0     21957         1         0     21960         1         0
     21963         1         0     21966         1         0     21969         1         0
     21972         1         0     21975         1         0     21978         1         0
     21981         1         0     21984         1         0     21987         1         0
     21990         1         0     21993         1         0     21996         1         0
     21999         1         0     22002         1         0     22005         1         0
     22008         1         0     22011         1         0     22014         1         0
     22017         1         0     22020         1         0     22023         1         0
     22026         1         0     22029         1         0     22032         1         0
     22035         1         0     22038         1         0     22041         1         0
     22044         1         0     22047         1         0     22050         1         0
     22053         1         0     22056         1         0     22059         1         0
     22062         1         0     22065         1         0     22068         1         0
     22071         1         0     22074         1         0     22077         1         0
     22080         1         0     22083         1         0     22086         1         0
     22089         1         0     22092         1         0     22095         1         0
     22098         1         0     22101         1         0     22104         1         0
     22107         1         0     22110         1         0     22113         1         0
     22116         1         0     22119         1         0     22122         1         0
     22125         1         0     22128         1         0     22131         1         0
     22134         1         0     22137         1         0     22140         1         0
     22143         1         0     22146         1         0     22149         1         0
     22152         1         0     22155         1         0     22158         1         0
     22161         1         0     22164         1         0     22167         1         0
     22170         1         0     22173         1         0     22176         1         0
     22179         1         0     22182         1         0     22185         1         0
     22188         1         0     22191         1         0     22194         1         0
     22197         1         0     22200         1         0     22203         1         0
     22206         1         0     22209         1         0     22212         1         0
     22215         1         0     22218         1         0     22221         1         0
     22224         1         0     22227         1         0     22230         1         0
     22233         1         0     22236         1         0     22239         1         0
     22242         1         0     22245         1         0     22248         1         0
     22251         1         0     22254         1         0     22257         1         0
     22260         1         0     22263         1         0     22266         1         0
     22269         1         0     22272         1         0     22275         1         0
     22278         1         0     22281         1         0     22284         1         0
     22287         1         0     22290         1         0     22293         1         0
     22296         1         0     22299         1         0     22302         1         0
     22305         1         0     22308         1         0     22311         1         0
     22314         1         0     22317         1         0     22320         1         0
     22323         1         0     22326         1         0     22329         1         0
     22332         1         0     22335         1         0     22338         1         0
     22341         1         0     22344         1         0     22347         1         0
     22350         1         0     22353         1         0     22356         1         0
     22359         1         0     22362         1         0     22365         1         0
     22368         1         0     22371         1         0     22374         1         0
     22377         1         0     22380         1         0     22383         1         0
     22386         1         0     22389         1         0     22392         1         0
     22395         1         0     22398         1         0     22401         1         0
     22404         1         0     22407         1         0     22410         1         0
     22413         1         0     22416         1         0     22419         1         0
     22422         1         0     22425         1         0     22428         1         0
     22431         1         0     22434         1         0     22437         1         0
     22440         1         0     22443         1         0     22446         1         0
     22449         1         0     22452         1         0     22455         1         0
     22458         1         0     22461         1         0     22464         1         0
     22467         1         0     22470         1         0     22473         1         0
     22476         1         0     22479         1         0     22482         1         0
     22485         1         0     22488         1         0     22491         1         0
     22494         1         0     22497         1         0     22500         1         0
     22503         1         0     22506         1         0     22509         1         0
     22512         1         0     22515         1         0     22518         1         0
     22521         1         0     22524         1         0     22527         1         0
     22530         1         0     22533         1         0     22536         1         0
     22539         1         0     22542         1         0     22545         1         0
     22548         1         0     22551         1         0     22554         1         0
     22557         1         0     22560         1         0     22563         1         0
     22566         1         0     22569         1         0     22572         1         0
     22575         1         0     22578         1         0     22581         1         0
     22584         1         0     22587         1         0     22590         1         0
     22593         1         0     22596         1         0     22599         1         0
     22602         1         0     22605         1         0     22608         1         0
     22611         1         0     22614         1         0     22617         1         0
     22620         1         0     22623         1         0     22626         1         0
     22629         1         0     22632         1         0     22635         1         0
     22638         1         0     22641         1         0     22644         1         0
     22647         1         0     22650         1         0     22653         1         0
     22656         1         0     22659         1         0     22662         1         0
     22665         1         0     22668         1         0     22671         1         0
     22674         1         0     22677         1         0     22680         1         0
     22683         1         0     22686         1         0     22689         1         0
     22692         1         0     22695         1         0     22698         1         0
     22701         1         0     22704         1         0     22707         1         0
     22710         1         0     22713         1         0     22716         1         0
     22719         1         0     22722         1         0     22725         1         0
     22728         1         0     22731         1         0     22734         1         0
     22737         1         0     22740         1         0     22743         1         0
     22746         1         0     22749         1         0     22752         1         0
     22755         1         0     22758         1         0     22761         1         0
     22764         1         0     22767         1         0     22770         1         0
     22773         1         0     22776         1         0     22779         1         0
     22782         1         0     22785         1         0     22788         1         0
     22791         1         0     22794         1         0     22797         1         0
     22800         1         0     22803         1         0     22806         1         0
     22809         1         0     22812         1         0     22815         1         0
     22818         1         0     22821         1         0     22824         1         0
     22827         1         0     22830         1         0     22833         1         0
     22836         1         0     22839         1         0     22842         1         0
     22845         1         0     22848         1         0     22851         1         0
     22854         1         0     22857         1         0     22860         1         0
     22863         1         0     22866         1         0     22869         1         0
     22872         1         0     22875         1         0     22878         1         0
     22881         1         0     22884         1         0     22887         1         0
     22890         1         0     22893         1         0     22896         1         0
     22899         1         0     22902         1         0     22905         1         0
     22908         1         0     22911         1         0     22914         1         0
     22917         1         0     22920         1         0     22923         1         0
     22926         1         0     22929         1         0     22932         1         0
     22935         1         0     22938         1         0     22941         1         0
     22944         1         0     22947         1         0     22950         1         0
     22953         1         0     22956         1         0     22959         1         0
     22962         1         0     22965         1         0     22968         1         0
     22971         1         0     22974         1         0     22977         1         0
     22980         1         0     22983         1         0     22986         1         0
     22989         1         0     22992         1         0     22995         1         0
     22998         1         0     23001         1         0     23004         1         0
     23007         1         0     23010         1         0     23013         1         0
     23016         1         0     23019         1         0     23022         1         0
     23025         1         0     23028         1         0     23031         1         0
     23034         1         0     23037         1         0     23040         1         0
     23043         1         0     23046         1         0     23049         1         0
     23052         1         0     23055         1         0     23058         1         0
     23061         1         0     23064         1         0     23067         1         0
     23070         1         0     23073         1         0     23076         1         0
     23079         1         0     23082         1         0     23085         1         0
     23088         1         0     23091         1         0     23094         1         0
     23097         1         0     23100         1         0     23103         1         0
     23106         1         0     23109         1         0     23112         1         0
     23115         1         0     23118         1         0     23121         1         0
     23124         1         0     23127         1         0     23130         1         0
     23133         1         0     23136         1         0     23139         1         0
     23142         1         0     23145         1         0     23148         1         0
     23151         1         0     23154         1         0     23157         1         0
     23160         1         0     23163         1         0     23166         1         0
     23169         1         0     23172         1         0     23175         1         0
     23178         1         0     23181         1         0     23184         1         0
     23187         1         0     23190         1         0     23193         1         0
     23196         1         0     23199         1         0     23202         1         0
     23205         1         0     23208         1         0     23211         1         0
     23214         1         0     23217         1         0     23220         1         0
     23223         1         0     23226         1         0     23229         1         0
     23232         1         0     23235         1         0     23238         1         0
     23241         1         0     23244         1         0     23247         1         0
     23250         1         0     23253         1         0     23256         1         0
     23259         1         0     23262         1         0     23265         1         0
     23268         1         0     23271         1         0     23274         1         0
     23277         1         0     23280         1         0     23283         1         0
     23286         1         0     23289         1         0     23292         1         0
     23295         1         0     23298         1         0     23301         1         0
     23304         1         0     23307         1         0     23310         1         0
     23313         1         0     23316         1         0     23319         1         0
     23322         1         0     23325         1         0     23328         1         0
     23331         1         0     23334         1         0     23337         1         0
     23340         1         0     23343         1         0     23346         1         0
     23349         1         0     23352         1         0     23355         1         0
     23358         1         0     23361         1         0     23364         1         0
     23367         1         0     23370         1         0     23373         1         0
     23376         1         0     23379         1         0     23382         1         0
     23385         1         0     23388         1         0     23391         1         0
     23394         1         0     23397         1         0     23400         1         0
     23403         1         0     23406         1         0     23409         1         0
     23412         1         0     23415         1         0     23418         1         0
     23421         1         0     23424         1         0     23427         1         0
     23430         1         0     23433         1         0     23436         1         0
     23439         1         0     23442         1         0     23445         1         0
     23448         1         0     23451         1         0     23454         1         0
     23457         1         0     23460         1         0     23463         1         0
     23466         1         0     23469         1         0     23472         1         0
     23475         1         0     23478         1         0     23481         1         0
     23484         1         0     23487         1         0     23490         1         0
     23493         1         0     23496         1         0     23499         1         0
     23502         1         0     23505         1         0     23508         1         0
     23511         1         0     23514         1         0     23517         1         0
     23520         1         0     23523         1         0     23526         1         0
     23529         1         0     23532         1         0     23535         1         0
     23538         1         0     23541         1         0     23544         1         0
     23547         1         0     23550         1         0     23553         1         0
     23556         1         0     23559         1         0     23562         1         0
     23565         1         0     23568         1         0     23571         1         0
     23574         1         0     23577         1         0     23580         1         0
     23583         1         0     23586         1         0     23589         1         0
     23592         1         0     23595         1         0     23598         1         0
     23601         1         0     23604         1         0     23607         1         0
     23610         1         0     23613         1         0     23616         1         0
     23619         1         0     23622         1         0     23625         1         0
     23628         1         0     23631         1         0     23634         1         0
     23637         1         0     23640         1         0     23643         1         0
     23646         1         0     23649         1         0     23652         1         0
     23655         1         0     23658         1         0     23661         1         0
     23664         1         0     23667         1         0     23670         1         0
     23673         1         0     23676         1         0     23679         1         0
     23682         1         0     23685         1         0     23688         1         0
     23691         1         0     23694         1         0     23697         1         0
     23700         1         0     23703         1         0     23706         1         0
     23709         1         0     23712         1         0     23715         1         0
     23718         1         0     23721         1         0     23724         1         0
     23727         1         0     23730         1         0     23733         1         0
     23736         1         0     23739         1         0     23742         1         0
     23745         1         0     23748         1         0     23751         1         0
     23754         1         0     23757         1         0     23760         1         0
     23763         1         0     23766         1         0     23769         1         0
     23772         1         0     23775         1         0     23778         1         0
     23781         1         0     23784         1         0     23787         1         0
     23790         1         0     23793         1         0     23796         1         0
     23799         1         0     23802         1         0     23805         1         0
     23808         1         0     23811         1         0     23814         1         0
     23817         1         0     23820         1         0     23823         1         0
     23826         1         0     23829         1         0     23832         1         0
     23835         1         0     23838         1         0     23841         1         0
     23844         1         0     23847         1         0     23850         1         0
     23853         1         0     23856         1         0     23859         1         0
     23862         1         0     23865         1         0     23868         1         0
     23871         1         0     23874         1         0     23877         1         0
     23880         1         0     23883         1         0     23886         1         0
     23889         1         0     23892         1         0     23895         1         0
     23898         1         0     23901         1         0     23904         1         0
     23907         1         0     23910         1         0     23913         1         0
     23916         1         0     23919         1         0     23922         1         0
     23925         1         0     23928         1         0     23931         1         0
     23934         1         0     23937         1         0     23940         1         0
     23943         1         0     23946         1         0     23949         1         0
     23952         1         0     23955         1         0     23958         1         0
     23961         1         0     23964         1         0     23967         1         0
     23970         1         0     23973         1         0     23976         1         0
     23979         1         0     23982         1         0     23985         1         0
     23988         1         0     23991         1         0     23994         1         0
     23997         1         0     24000         1         0     24003         1         0
     24006         1         0     24009         1         0     24012         1         0
     24015         1         0     24018         1         0     24021         1         0
     24024         1         0     24027         1         0     24030         1         0
     24033         1         0     24036         1         0     24039         1         0
     24042         1         0     24045         1         0     24048         1         0
     24051         1         0     24054         1         0     24057         1         0
     24060         1         0     24063         1         0     24066         1         0
     24069         1         0     24072         1         0     24075         1         0
     24078         1         0     24081         1         0     24084         1         0
     24087         1         0     24090         1         0     24093         1         0
     24096         1         0     24099         1         0     24102         1         0
     24105         1         0     24108         1         0     24111         1         0
     24114         1         0     24117         1         0     24120         1         0
     24123         1         0     24126         1         0     24129         1         0
     24132         1         0     24135         1         0     24138         1         0
     24141         1         0     24144         1         0     24147         1         0
     24150         1         0     24153         1         0     24156         1         0
     24159         1         0     24162         1         0     24165         1         0
     24168         1         0     24171         1         0     24174         1         0
     24177         1         0     24180         1         0     24183         1         0
     24186         1         0     24189         1         0     24192         1         0
     24195         1         0     24198         1         0     24201         1         0
     24204         1         0     24207         1         0     24210         1         0
     24213         1         0     24216         1         0     24219         1         0
     24222         1         0     24225         1         0     24228         1         0
     24231         1         0     24234         1         0     24237         1         0
     24240         1         0     24243         1         0     24246         1         0
     24249         1         0     24252         1         0     24255         1         0
     24258         1         0     24261         1         0     24264         1         0
     24267         1         0     24270         1         0     24273         1         0
     24276         1         0     24279         1         0     24282         1         0
     24285         1         0     24288         1         0     24291         1         0
     24294         1         0     24297         1         0     24300         1         0
     24303         1         0     24306         1         0     24309         1         0
     24312         1         0     24315         1         0     24318         1         0
     24321         1         0     24324         1         0     24327         1         0
     24330         1         0     24333         1         0     24336         1         0
     24339         1         0     24342         1         0     24345         1         0
     24348         1         0     24351         1         0     24354         1         0
     24357         1         0     24360         1         0     24363         1         0
     24366         1         0     24369         1         0     24372         1         0
     24375         1         0     24378         1         0     24381         1         0
     24384         1         0     24387         1         0     24390         1         0
     24393         1         0     24396         1         0     24399         1         0
     24402         1         0     24405         1         0     24408         1         0
     24411         1         0     24414         1         0     24417         1         0
     24420         1         0     24423         1         0     24426         1         0
     24429         1         0     24432         1         0     24435         1         0
     24438         1         0     24441         1         0     24444         1         0
     24447         1         0     24450         1         0     24453         1         0
     24456         1         0     24459         1         0     24462         1         0
     24465         1         0     24468         1         0     24471         1         0
     24474         1         0     24477         1         0     24480         1         0
     24483         1         0     24486         1         0     24489         1         0
     24492         1         0     24495         1         0     24498         1         0
     24501         1         0     24504         1         0     24507         1         0
     24510         1         0     24513         1         0     24516         1         0
     24519         1         0     24522         1         0     24525         1         0
     24528         1         0     24531         1         0     24534         1         0
     24537         1         0     24540         1         0     24543         1         0
     24546         1         0     24549         1         0     24552         1         0
     24555         1         0     24558         1         0     24561         1         0
     24564         1         0     24567         1         0     24570         1         0
     24573         1         0     24576         1         0     24579         1         0
     24582         1         0     24585         1         0     24588         1         0
     24591         1         0     24594         1         0     24597         1         0
     24600         1         0     24603         1         0     24606         1         0
     24609         1         0     24612         1         0     24615         1         0
     24618         1         0     24621         1         0     24624         1         0
     24627         1         0     24630         1         0     24633         1         0
     24636         1         0     24639         1         0     24642         1         0
     24645         1         0     24648         1         0     24651         1         0
     24654         1         0     24657         1         0     24660         1         0
     24663         1         0     24666         1         0     24669         1         0
     24672         1         0     24675         1         0     24678         1         0
     24681         1         0     24684         1         0     24687         1         0
     24690         1         0     24693         1         0     24696         1         0
     24699         1         0     24702         1         0     24705         1         0
     24708         1         0     24711         1         0     24714         1         0
     24717         1         0     24720         1         0     24723         1         0
     24726         1         0     24729         1         0     24732         1         0
     24735         1         0     24738         1         0     24741         1         0
     24744         1         0     24747         1         0     24750         1         0
     24753         1         0     24756         1         0     24759         1         0
     24762         1         0     24765         1         0     24768         1         0
     24771         1         0     24774         1         0     24777         1         0
     24780         1         0     24783         1         0     24786         1         0
     24789         1         0     24792         1         0     24795         1         0
     24798         1         0     24801         1         0     24804         1         0
     24807         1         0     24810         1         0     24813         1         0
     24816         1         0     24819         1         0     24822         1         0
     24825         1         0     24828         1         0     24831         1         0
     24834         1         0     24837         1         0     24840         1         0
     24843         1         0     24846         1         0     24849         1         0
     24852         1         0     24855         1         0     24858         1         0
     24861         1         0     24864         1         0     24867         1         0
     24870         1         0     24873         1         0     24876         1         0
     24879         1         0     24882         1         0     24885         1         0
     24888         1         0     24891         1         0     24894         1         0
     24897         1         0     24900         1         0     24903         1         0
     24906         1         0     24909         1         0     24912         1         0
     24915         1         0     24918         1         0     24921         1         0
     24924         1         0     24927         1         0     24930         1         0
     24933         1         0     24936         1         0     24939         1         0
     24942         1         0     24945         1         0     24948         1         0
     24951         1         0     24954         1         0     24957         1         0
     24960         1         0     24963         1         0     24966         1         0
     24969         1         0     24972         1         0     24975         1         0
     24978         1         0     24981         1         0     24984         1         0
     24987         1         0     24990         1         0     24993         1         0
     24996         1         0     24999         1         0     25002         1         0
     25005         1         0     25008         1         0     25011         1         0
     25014         1         0     25017         1         0     25020         1         0
     25023         1         0     25026         1         0     25029         1         0
     25032         1         0     25035         1         0     25038         1         0
     25041         1         0     25044         1         0     25047         1         0
     25050         1         0     25053         1         0     25056         1         0
     25059         1         0     25062         1         0     25065         1         0
     25068         1         0     25071         1         0     25074         1         0
     25077         1         0     25080         1         0     25083         1         0
     25086         1         0     25089         1         0     25092         1         0
     25095         1         0     25098         1         0     25101         1         0
     25104         1         0     25107         1         0     25110         1         0
     25113         1         0     25116         1         0     25119         1         0
     25122         1         0     25125         1         0     25128         1         0
     25131         1         0     25134         1         0     25137         1         0
     25140         1         0     25143         1         0     25146         1         0
     25149         1         0     25152         1         0     25155         1         0
     25158         1         0     25161         1         0     25164         1         0
     25167         1         0     25170         1         0     25173         1         0
     25176         1         0     25179         1         0     25182         1         0
     25185         1         0     25188         1         0     25191         1         0
     25194         1         0     25197         1         0     25200         1         0
     25203         1         0     25206         1         0     25209         1         0
     25212         1         0     25215         1         0     25218         1         0
     25221         1         0     25224         1         0     25227         1         0
     25230         1         0     25233         1         0     25236         1         0
     25239         1         0     25242         1         0     25245         1         0
     25248         1         0     25251         1         0     25254         1         0
     25257         1         0     25260         1         0     25263         1         0
     25266         1         0     25269         1         0     25272         1         0
     25275         1         0     25278         1         0     25281         1         0
     25284         1         0     25287         1         0     25290         1         0
     25293         1         0     25296         1         0     25299         1         0
     25302         1         0     25305         1         0     25308         1         0
     25311         1         0     25314         1         0     25317         1         0
     25320         1         0     25323         1         0     25326         1         0
     25329         1         0     25332         1         0     25335         1         0
     25338         1         0     25341         1         0     25344         1         0
     25347         1         0     25350         1         0     25353         1         0
     25356         1         0     25359         1         0     25362         1         0
     25365         1         0     25368         1         0     25371         1         0
     25374         1         0     25377         1         0     25380         1         0
     25383         1         0     25386         1         0     25389         1         0
     25392         1         0     25395         1         0     25398         1         0
     25401         1         0     25404         1         0     25407         1         0
     25410         1         0     25413         1         0     25416         1         0
     25419         1         0     25422         1         0     25425         1         0
     25428         1         0     25431         1         0     25434         1         0
     25437         1         0     25440         1         0     25443         1         0
     25446         1         0     25449         1         0     25452         1         0
     25455         1         0     25458         1         0     25461         1         0
     25464         1         0     25467         1         0     25470         1         0
     25473         1         0     25476         1         0     25479         1         0
     25482         1         0     25485         1         0     25488         1         0
     25491         1         0     25494         1         0     25497         1         0
     25500         1         0     25503         1         0     25506         1         0
     25509         1         0     25512         1         0     25515         1         0
     25518         1         0     25521         1         0     25524         1         0
     25527         1         0     25530         1         0     25533         1         0
     25536         1         0     25539         1         0     25542         1         0
     25545         1         0     25548         1         0     25551         1         0
     25554         1         0     25557         1         0     25560         1         0
     25563         1         0     25566         1         0     25569         1         0
     25572         1         0     25575         1         0     25578         1         0
     25581         1         0     25584         1         0     25587         1         0
     25590         1         0     25593         1         0     25596         1         0
     25599         1         0     25602         1         0     25605         1         0
     25608         1         0     25611         1         0     25614         1         0
     25617         1         0     25620         1         0     25623         1         0
     25626         1         0     25629         1         0     25632         1         0
     25635         1         0     25638         1         0     25641         1         0
     25644         1         0     25647         1         0     25650         1         0
     25653         1         0     25656         1         0     25659         1         0
     25662         1         0     25665         1         0     25668         1         0
     25671         1         0     25674         1         0     25677         1         0
     25680         1         0     25683         1         0     25686         1         0
     25689         1         0     25692         1         0     25695         1         0
     25698         1         0     25701         1         0     25704         1         0
     25707         1         0     25710         1         0     25713         1         0
     25716         1         0     25719         1         0     25722         1         0
     25725         1         0     25728         1         0     25731         1         0
     25734         1         0     25737         1         0     25740         1         0
     25743         1         0     25746         1         0     25749         1         0
     25752         1         0     25755         1         0     25758         1         0
     25761         1         0     25764         1         0     25767         1         0
     25770         1         0     25773         1         0     25776         1         0
     25779         1         0     25782         1         0     25785         1         0
     25788         1         0     25791         1         0     25794         1         0
     25797         1         0     25800         1         0     25803         1         0
     25806         1         0     25809         1         0     25812         1         0
     25815         1         0     25818         1         0     25821         1         0
     25824         1         0     25827         1         0     25830         1         0
     25833         1         0     25836         1         0     25839         1         0
     25842         1         0     25845         1         0     25848         1         0
     25851         1         0     25854         1         0     25857         1         0
     25860         1         0     25863         1         0     25866         1         0
     25869         1         0     25872         1         0     25875         1         0
     25878         1         0     25881         1         0     25884         1         0
     25887         1         0     25890         1         0     25893         1         0
     25896         1         0     25899         1         0     25902         1         0
     25905         1         0     25908         1         0     25911         1         0
     25914         1         0     25917         1         0     25920         1         0
     25923         1         0     25926         1         0     25929         1         0
     25932         1         0     25935         1         0     25938         1         0
     25941         1         0     25944         1         0     25947         1         0
     25950         1         0     25953         1         0     25956         1         0
     25959         1         0     25962         1         0     25965         1         0
     25968         1         0     25971         1         0     25974         1         0
     25977         1         0     25980         1         0     25983         1         0
     25986         1         0     25989         1         0     25992         1         0
     25995         1         0     25998         1         0     26001         1         0
     26004         1         0     26007         1         0     26010         1         0
     26013         1         0     26016         1         0     26019         1         0
     26022         1         0     26025         1         0     26028         1         0
     26031         1         0     26034         1         0     26037         1         0
     26040         1         0     26043         1         0     26046         1         0
     26049         1         0     26052         1         0     26055         1         0
     26058         1         0     26061         1         0     26064         1         0
     26067         1         0     26070         1         0     26073         1         0
     26076         1         0     26079         1         0     26082         1         0
     26085         1         0     26088         1         0     26091         1         0
     26094         1         0     26097         1         0     26100         1         0
     26103         1         0     26106         1         0     26109         1         0
     26112         1         0     26115         1         0     26118         1         0
     26121         1         0     26124         1         0     26127         1         0
     26130         1         0     26133         1         0     26136         1         0
     26139         1         0     26142         1         0     26145         1         0
     26148         1         0     26151         1         0     26154         1         0
     26157         1         0     26160         1         0     26163         1         0
     26166         1         0     26169         1         0     26172         1         0
     26175         1         0     26178         1         0     26181         1         0
     26184         1         0     26187         1         0     26190         1         0
     26193         1         0     26196         1         0     26199         1         0
     26202         1         0     26205         1         0     26208         1         0
     26211         1         0     26214         1         0     26217         1         0
     26220         1         0     26223         1         0     26226         1         0
     26229         1         0     26232         1         0     26235         1         0
     26238         1         0     26241         1         0     26244         1         0
     26247         1         0     26250         1         0     26253         1         0
     26256         1         0     26259         1         0     26262         1         0
     26265         1         0     26268         1         0     26271         1         0
     26274         1         0     26277         1         0     26280         1         0
     26283         1         0     26286         1         0     26289         1         0
     26292         1         0     26295         1         0     26298         1         0
     26301         1         0     26304         1         0     26307         1         0
     26310         1         0     26313         1         0     26316         1         0
     26319         1         0     26322         1         0     26325         1         0
     26328         1         0     26331         1         0     26334         1         0
     26337         1         0     26340         1         0     26343         1         0
     26346         1         0     26349         1         0     26352         1         0
     26355         1         0     26358         1         0     26361         1         0
     26364         1         0     26367         1         0     26370         1         0
     26373         1         0     26376         1         0     26379         1         0
     26382         1         0     26385         1         0     26388         1         0
     26391         1         0     26394         1         0     26397         1         0
     26400         1         0     26403         1         0     26406         1         0
     26409         1         0     26412         1         0     26415         1         0
     26418         1         0     26421         1         0     26424         1         0
     26427         1         0     26430         1         0     26433         1         0
     26436         1         0     26439         1         0     26442         1         0
     26445         1         0     26448         1         0     26451         1         0
     26454         1         0     26457         1         0     26460         1         0
     26463         1         0     26466         1         0     26469         1         0
     26472         1         0     26475         1         0     26478         1         0
     26481         1         0     26484         1         0     26487         1         0
     26490         1         0     26493         1         0     26496         1         0
     26499         1         0     26502         1         0     26505         1         0
     26508         1         0     26511         1         0     26514         1         0
     26517         1         0     26520         1         0     26523         1         0
     26526         1         0     26529         1         0     26532         1         0
     26535         1         0     26538         1         0     26541         1         0
     26544         1         0     26547         1         0     26550         1         0
     26553         1         0     26556         1         0     26559         1         0
     26562         1         0     26565         1         0     26568         1         0
     26571         1         0     26574         1         0     26577         1         0
     26580         1         0     26583         1         0     26586         1         0
     26589         1         0     26592         1         0     26595         1         0
     26598         1         0     26601         1         0     26604         1         0
     26607         1         0     26610         1         0     26613         1         0
     26616         1         0     26619         1         0     26622         1         0
     26625         1         0     26628         1         0     26631         1         0
     26634         1         0     26637         1         0     26640         1         0
     26643         1         0     26646         1         0     26649         1         0
     26652         1         0     26655         1         0     26658         1         0
     26661         1         0     26664         1         0     26667         1         0
     26670         1         0     26673         1         0     26676         1         0
     26679         1         0     26682         1         0     26685         1         0
     26688         1         0     26691         1         0     26694         1         0
     26697         1         0     26700         1         0     26703         1         0
     26706         1         0     26709         1         0     26712         1         0
     26715         1         0     26718         1         0     26721         1         0
     26724         1         0     26727         1         0     26730         1         0
     26733         1         0     26736         1         0     26739         1         0
     26742         1         0     26745         1         0     26748         1         0
     26751         1         0     26754         1         0     26757         1         0
     26760         1         0     26763         1         0     26766         1         0
     26769         1         0     26772         1         0     26775         1         0
     26778         1         0     26781         1         0     26784         1         0
     26787         1         0     26790         1         0     26793         1         0
     26796         1         0     26799         1         0     26802         1         0
     26805         1         0     26808         1         0     26811         1         0
     26814         1         0     26817         1         0     26820         1         0
     26823         1         0     26826         1         0     26829         1         0
     26832         1         0     26835         1         0     26838         1         0
     26841         1         0     26844         1         0     26847         1         0
     26850         1         0     26853         1         0     26856         1         0
     26859         1         0     26862         1         0     26865         1         0
     26868         1         0     26871         1         0     26874         1         0
     26877         1         0     26880         1         0     26883         1         0
     26886         1         0     26889         1         0     26892         1         0
     26895         1         0     26898         1         0     26901         1         0
     26904         1         0     26907         1         0     26910         1         0
     26913         1         0     26916         1         0     26919         1         0
     26922         1         0     26925         1         0     26928         1         0
     26931         1         0     26934         1         0     26937         1         0
     26940         1         0     26943         1         0     26946         1         0
     26949         1         0     26952         1         0     26955         1         0
     26958         1         0     26961         1         0     26964         1         0
     26967         1         0     26970         1         0     26973         1         0
     26976         1         0     26979         1         0     26982         1         0
     26985         1         0     26988         1         0     26991         1         0
     26994         1         0     26997         1         0     27000         1         0
     27003         1         0     27006         1         0     27009         1         0
     27012         1         0     27015         1         0     27018         1         0
     27021         1         0     27024         1         0     27027         1         0
     27030         1         0     27033         1         0     27036         1         0
     27039         1         0     27042         1         0     27045         1         0
     27048         1         0     27051         1         0     27054         1         0
     27057         1         0     27060         1         0     27063         1         0
     27066         1         0     27069         1         0     27072         1         0
     27075         1         0     27078         1         0     27081         1         0
     27084         1         0     27087         1         0     27090         1         0
     27093         1         0     27096         1         0     27099         1         0
     27102         1         0     27105         1         0     27108         1         0
     27111         1         0     27114         1         0     27117         1         0
     27120         1         0     27123         1         0     27126         1         0
     27129         1         0     27132         1         0     27135         1         0
     27138         1         0     27141         1         0     27144         1         0
     27147         1         0     27150         1         0     27153         1         0
     27156         1         0     27159         1         0     27162         1         0
     27165         1         0     27168         1         0     27171         1         0
     27174         1         0     27177         1         0     27180         1         0
     27183         1         0     27186         1         0     27189         1         0
     27192         1         0     27195         1         0     27198         1         0
     27201         1         0     27204         1         0     27207         1         0
     27210         1         0     27213         1         0     27216         1         0
     27219         1         0     27222         1         0     27225         1         0
     27228         1         0     27231         1         0     27234         1         0
     27237         1         0     27240         1         0     27243         1         0
     27246         1         0     27249         1         0     27252         1         0
     27255         1         0     27258         1         0     27261         1         0
     27264         1         0     27267         1         0     27270         1         0
     27273         1         0     27276         1         0     27279         1         0
     27282         1         0     27285         1         0     27288         1         0
     27291         1         0     27294         1         0     27297         1         0
     27300         1         0     27303         1         0     27306         1         0
     27309         1         0     27312         1         0     27315         1         0
     27318         1         0     27321         1         0     27324         1         0
     27327         1         0     27330         1         0     27333         1         0
     27336         1         0     27339         1         0     27342         1         0
     27345         1         0     27348         1         0     27351         1         0
     27354         1         0     27357         1         0     27360         1         0
     27363         1         0     27366         1         0     27369         1         0
     27372         1         0     27375         1         0     27378         1         0
     27381         1         0     27384         1         0     27387         1         0
     27390         1         0     27393         1         0     27396         1         0
     27399         1         0     27402         1         0     27405         1         0
     27408         1         0     27411         1         0     27414         1         0
     27417         1         0     27420         1         0     27423         1         0
     27426         1         0     27429         1         0     27432         1         0
     27435         1         0     27438         1         0     27441         1         0
     27444         1         0     27447         1         0     27450         1         0
     27453         1         0     27456         1         0     27459         1         0
     27462         1         0     27465         1         0     27468         1         0
     27471         1         0     27474         1         0     27477         1         0
     27480         1         0     27483         1         0     27486         1         0
     27489         1         0     27492         1         0     27495         1         0
     27498         1         0     27501         1         0     27504         1         0
     27507         1         0     27510         1         0     27513         1         0
     27516         1         0     27519         1         0     27522         1         0
     27525         1         0     27528         1         0     27531         1         0
     27534         1         0     27537         1         0     27540         1         0
     27543         1         0     27546         1         0     27549         1         0
     27552         1         0     27555         1         0     27558         1         0
     27561         1         0     27564         1         0     27567         1         0
     27570         1         0     27573         1         0     27576         1         0
     27579         1         0     27582         1         0     27585         1         0
     27588         1         0     27591         1         0     27594         1         0
     27597         1         0     27600         1         0     27603         1         0
     27606         1         0     27609         1         0     27612         1         0
     27615         1         0     27618         1         0     27621         1         0
     27624         1         0     27627         1         0     27630         1         0
     27633         1         0     27636         1         0     27639         1         0
     27642         1         0     27645         1         0     27648         1         0
     27651         1         0     27654         1         0     27657         1         0
     27660         1         0     27663         1         0     27666         1         0
     27669         1         0     27672         1         0     27675         1         0
     27678         1         0     27681         1         0     27684         1         0
     27687         1         0     27690         1         0     27693         1         0
     27696         1         0     27699         1         0     27702         1         0
     27705         1         0     27708         1         0     27711         1         0
     27714         1         0     27717         1         0     27720         1         0
     27723         1         0     27726         1         0     27729         1         0
     27732         1         0     27735         1         0     27738         1         0
     27741         1         0     27744         1         0     27747         1         0
     27750         1         0     27753         1         0     27756         1         0
     27759         1         0     27762         1         0     27765         1         0
     27768         1         0     27771         1         0     27774         1         0
     27777         1         0     27780         1         0     27783         1         0
     27786         1         0     27789         1         0     27792         1         0
     27795         1         0     27798         1         0     27801         1         0
     27804         1         0     27807         1         0     27810         1         0
     27813         1         0     27816         1         0     27819         1         0
     27822         1         0     27825         1         0     27828         1         0
     27831         1         0     27834         1         0     27837         1         0
     27840         1         0     27843         1         0     27846         1         0
     27849         1         0     27852         1         0     27855         1         0
     27858         1         0     27861         1         0     27864         1         0
     27867         1         0     27870         1         0     27873         1         0
     27876         1         0     27879         1         0     27882         1         0
     27885         1         0     27888         1         0     27891         1         0
     27894         1         0     27897         1         0     27900         1         0
     27903         1         0     27906         1         0     27909         1         0
     27912         1         0     27915         1         0     27918         1         0
     27921         1         0     27924         1         0     27927         1         0
     27930         1         0     27933         1         0     27936         1         0
     27939         1         0     27942         1         0     27945         1         0
     27948         1         0     27951         1         0     27954         1         0
     27957         1         0     27960         1         0     27963         1         0
     27966         1         0     27969         1         0     27972         1         0
     27975         1         0     27978         1         0     27981         1         0
     27984         1         0     27987         1         0     27990         1         0
     27993         1         0     27996         1         0     27999         1         0
     28002         1         0     28005         1         0     28008         1         0
     28011         1         0     28014         1         0     28017         1         0
     28020         1         0     28023         1         0     28026         1         0
     28029         1         0     28032         1         0     28035         1         0
     28038         1         0     28041         1         0     28044         1         0
     28047         1         0     28050         1         0     28053         1         0
     28056         1         0     28059         1         0     28062         1         0
     28065         1         0     28068         1         0     28071         1         0
     28074         2         0     28075         2         0     28076         2         0
     28077         2         0     28078         2         0     28079         2         0
     28080         2         0     28081         2         0     28082         2         0
     28083         2         0     28084         2         0     28085         2         0
     28086         2         0     28087         2         0     28088         2         0
     28089         2         0     28090         2         0     28091         2         0
     28092         2         0     28093         2         0     28094         2         0
     28095         2         0     28096         2         0     28097         2         0
     28098         2         0     28099         2         0     28100         2         0
     28101         2         0     28102         2         0     28103         2         0
     28104         2         0     28105         2         0     28106         2         0
     28107         2         0     28108         2         0     28109         2         0
     28110         2         0     28111         2         0     28112         2         0
     28113         2         0     28114         2         0     28115         2         0

         0         0 !NUMLP NUMLPH

         0 !NCRTERM: cross-terms


      3612 !AUTOGEN
         0         0         0         0         0         0         0         0
         0         0         0         0         0         0         0         0
         0         0         0         0         0         0         0         0
         0         0         0         0         0         0         0         0
         0         0         0         0         0         0         0         0
         0         0         0         0         0         0         0         0
         0         0         0         0         0         0         0         0
         0         0         0         0         0         0         0         0
         0         0         0         0         0         0         0         0
         0         0         0         0         0         0         0         0
         0         0         0         0         0         0         0         0
         0         0         0         0         0         0         0         0
         0         0         0         0         0         0         0         0
         0         0         0         0         0         0         0         0
         0         0         0         0         0         0         0         0
         0         0         0         0         0         0         0         0
         0         0         0         0         0         0         0         0
         0         0         0         0         0         0         0         0
         0         0         0         0         0         0         0         0
         0         0         0         0         0         0         0         0
         0         0         0         0         0         0         0         0
         0         0         0         0         0         0         0         0
         0         0         0         0         0         0         0         0
         0         0         0         0         0         0         0         0
         0         0         0         0         0         0         0         0
         0         0         0         0         0         0         0         0
         0         0         0         0         0         0         0         0
         0         0         0         0         0         0         0         0
         0         0         0         0         0         0         0         0
         0         0         0         0         0         0         0         0
         0         0         0         0         0         0         0         0
         0         0         0         0         0         0         0         0
         0         0         0         0         0         0         0         0
         0         0         0         0         0         0         0         0
         0         0         0         0         0         0         0         0
         0         0         0         0         0         0         0         0
         0         0         0         0         0         0         0         0
         0         0         0         0         0         0         0         0
         0         0         0         0         0         0         0         0
         0         0         0         0         0         0         0         0
         0         0         0         0         0         0         0         0
         0         0         0         0         0         0         0         0
         0         0         0         0         0         0         0         0
         0         0         0         0         0         0         0         0
         0         0         0         0         0         0         0         0
         0         0         0         0         0         0         0         0
         0         0         0         0         0         0         0         0
         0         0         0         0         0         0         0         0
         0         0         0         0         0         0         0         0
         0         0         0         0         0         0         0         0
         0         0         0         0         0         0         0         0
         0         0         0         0         0         0         0         0
         0         0         0         0         0         0         0         0
         0         0         0         0         0         0         0         0
         0         0         0         0         0         0         0         0
         0         0         0         0         0         0         0         0
         0         0         0         0         0         0         0         0
         0         0         0         0         0         0         0         0
         0         0         0         0         0         0         0         0
         0         0         0         0         0         0         0         0
         0         0         0         0         0         0         0         0
         0         0         0         0         0         0         0         0
         0         0         0         0         0         0         0         0
         0         0         0         0         0         0         0         0
         0         0         0         0         0         0         0         0
         0         0         0         0         0         0         0         0
         0         0         0         0         0         0         0         0
         0         0         0         0         0         0         0         0
         0         0         0         0         0         0         0         0
         0         0         0         0         0         0         0         0
         0         0         0         0         0         0         0         0
         0         0         0         0         0         0         0         0
         0         0         0         0         0         0         0         0
         0         0         0         0         0         0         0         0
         0         0         0         0         0         0         0         0
         0         0         0         0         0         0         0         0
         0         0         0         0         0         0         0         0
         0         0         0         0         0         0         0         0
         0         0         0         0         0         0         0         0
         0         0         0         0         0         0         0         0
         0         0         0         0         0         0         0         0
         0         0         0         0         0         0         0         0
         0         0         0         0         0         0         0         0
         0         0         0         0         0         0         0         0
         0         0         0         0         0         0         0         0
         0         0         0         0         0         0         0         0
         0         0         0         0         0         0         0         0
         0         0         0         0         0         0         0         0
         0         0         0         0         0         0         0         0
         0         0         0         0         0         0         0         0
         0         0         0         0         0         0         0         0
         0         0         0         0         0         0         0         0
         0         0         0         0         0         0         0         0
         0         0         0         0         0         0         0         0
         0         0         0         0         0         0         0         0
         0         0         0         0         0         0         0         0
         0         0         0         0         0         0         0         0
         0         0         0         0         0         0         0         0
         0         0         0         0         0         0         0         0
         0         0         0         0         0         0         0         0
         0         0         0         0         0         0         0         0
         0         0         0         0         0         0         0         0
         0         0         0         0         0         0         0         0
         0         0         0         0         0         0         0         0
         0         0         0         0         0         0         0         0
         0         0         0         0         0         0         0         0
         0         0         0         0         0         0         0         0
         0         0         0         0         0         0         0         0
         0         0         0         0         0         0         0         0
         0         0         0         0         0         0         0         0
         0         0         0         0         0         0         0         0
         0         0         0         0         0         0         0         0
         0         0         0         0         0         0         0         0
         0         0         0         0         0         0         0         0
         0         0         0         0         0         0         0         0
         0         0         0         0         0         0         0         0
         0         0         0         0         0         0         0         0
         0         0         0         0         0         0         0         0
         0         0         0         0         0         0         0         0
         0         0         0         0         0         0         0         0
         0         0         0         0         0         0         0         0
         0         0         0         0         0         0         0         0
         0         0         0         0         0         0         0         0
         0         0         0         0         0         0         0         0
         0         0         0         0         0         0         0         0
         0         0         0         0         0         0         0         0
         0         0         0         0         0         0         0         0
         0         0         0         0         0         0         0         0
         0         0         0         0         0         0         0         0
         0         0         0         0         0         0         0         0
         0         0         0         0         0         0         0         0
         0         0         0         0         0         0         0         0
         0         0         0         0         0         0         0         0
         0         0         0         0         0         0         0         0
         0         0         0         0         0         0         0         0
         0         0         0         0         0         0         0         0
         0         0         0         0         0         0         0         0
         0         0         0         0         0         0         0         0
         0         0         0         0         0         0         0         0
         0         0         0         0         0         0         0         0
         0         0         0         0         0         0         0         0
         0         0         0         0         0         0         0         0
         0         0         0         0         0         0         0         0
         0         0         0         0         0         0         0         0
         0         0         0         0         0         0         0         0
         0         0         0         0         0         0         0         0
         0         0         0         0         0         0         0         0
         0         0         0         0         0         0         0         0
         0         0         0         0         0         0         0         0
         0         0         0         0         0         0         0         0
         0         0         0         0         0         0         0         0
         0         0         0         0         0         0         0         0
         0         0         0         0         0         0         0         0
         0         0         0         0         0         0         0         0
         0         0         0         0         0         0         0         0
         0         0         0         0         0         0         0         0
         0         0         0         0         0         0         0         0
         0         0         0         0         0         0         0         0
         0         0         0         0         0         0         0         0
         0         0         0         0         0         0         0         0
         0         0         0         0         0         0         0         0
         0         0         0         0         0         0         0         0
         0         0         0         0         0         0         0         0
         0         0         0         0         0         0         0         0
         0         0         0         0         0         0         0         0
         0         0         0         0         0         0         0         0
         0         0         0         0         0         0         0         0
         0         0         0         0         0         0         0         0
         0         0         0         0         0         0         0         0
         0         0         0         0         0         0         0         0
         0         0         0         0         0         0         0         0
         0         0         0         0         0         0         0         0
         0         0         0         0         0         0         0         0
         0         0         0         0         0         0         0         0
         0         0         0         0         0         0         0         0
         0         0         0         0         0         0         0         0
         0         0         0         0         0         0         0         0
         0         0         0         0         0         0         0         0
         0         0         0         0         0         0         0         0
         0         0         0         0         0         0         0         0
         0         0         0         0         0         0         0         0
         0         0         0         0         0         0         0         0
         0         0         0         0         0         0         0         0
         0         0         0         0         0         0         0         0
         0         0         0         0         0         0         0         0
         0         0         0         0         0         0         0         0
         0         0         0         0         0         0         0         0
         0         0         0         0         0         0         0         0
         0         0         0         0         0         0         0         0
         0         0         0         0         0         0         0         0
         0         0         0         0         0         0         0         0
         0         0         0         0         0         0         0         0
         0         0         0         0         0         0         0         0
         0         0         0         0         0         0         0         0
         0         0         0         0         0         0         0         0
         0         0         0         0         0         0         0         0
         0         0         0         0         0         0         0         0
         0         0         0         0         0         0         0         0
         0         0         0         0         0         0         0         0
         0         0         0         0         0         0         0         0
         0         0         0         0         0         0         0         0
         0         0         0         0         0         0         0         0
         0         0         0         0         0         0         0         0
         0         0         0         0         0         0         0         0
         0         0         0         0         0         0         0         0
         0         0         0         0         0         0         0         0
         0         0         0         0         0         0         0         0
         0         0         0         0         0         0         0         0
         0         0         0         0         0         0         0         0
         0         0         0         0         0         0         0         0
         0         0         0         0         0         0         0         0
         0         0         0         0         0         0         0         0
         0         0         0         0         0         0         0         0
         0         0         0         0         0         0         0         0
         0         0         0         0         0         0         0         0
         0         0         0         0         0         0         0         0
         0         0         0         0         0         0         0         0
         0         0         0         0         0         0         0         0
         0         0         0         0         0         0         0         0
         0         0         0         0         0         0         0         0
         0         0         0         0         0         0         0         0
         0         0         0         0         0         0         0         0
         0         0         0         0         0         0         0         0
         0         0         0         0         0         0         0         0
         0         0         0         0         0         0         0         0
         0         0         0         0         0         0         0         0
         0         0         0         0         0         0         0         0
         0         0         0         0         0         0         0         0
         0         0         0         0         0         0         0         0
         0         0         0         0         0         0         0         0
         0         0         0         0         0         0         0         0
         0         0         0         0         0         0         0         0
         0         0         0         0         0         0         0         0
         0         0         0         0         0         0         0         0
         0         0         0         0         0         0         0         0
         0         0         0         0         0         0         0         0
         0         0         0         0         0         0         0         0
         0         0         0         0         0         0         0         0
         0         0         0         0         0         0         0         0
         0         0         0         0         0         0         0         0
         0         0         0         0         0         0         0         0
         0         0         0         0         0         0         0         0
         0         0         0         0         0         0         0         0
         0         0         0         0         0         0         0         0
         0         0         0         0         0         0         0         0
         0         0         0         0         0         0         0         0
         0         0         0         0         0         0         0         0
         0         0         0         0         0         0         0         0
         0         0         0         0         0         0         0         0
         0         0         0         0         0         0         0         0
         0         0         0         0         0         0         0         0
         0         0         0         0         0         0         0         0
         0         0         0         0         0         0         0         0
         0         0         0         0         0         0         0         0
         0         0         0         0         0         0         0         0
         0         0         0         0         0         0         0         0
         0         0         0         0         0         0         0         0
         0         0         0         0         0         0         0         0
         0         0         0         0         0         0         0         0
         0         0         0         0         0         0         0         0
         0         0         0         0         0         0         0         0
         0         0         0         0         0         0         0         0
         0         0         0         0         0         0         0         0
         0         0         0         0         0         0         0         0
         0         0         0         0         0         0         0         0
         0         0         0         0         0         0         0         0
         0         0         0         0         0         0         0         0
         0         0         0         0         0         0         0         0
         0         0         0         0         0         0         0         0
         0         0         0         0         0         0         0         0
         0         0         0         0         0         0         0         0
         0         0         0         0         0         0         0         0
         0         0         0         0         0         0         0         0
         0         0         0         0         0         0         0         0
         0         0         0         0         0         0         0         0
         0         0         0         0         0         0         0         0
         0         0         0         0         0         0         0         0
         0         0         0         0         0         0         0         0
         0         0         0         0         0         0         0         0
         0         0         0         0         0         0         0         0
         0         0         0         0         0         0         0         0
         0         0         0         0         0         0         0         0
         0         0         0         0         0         0         0         0
         0         0         0         0         0         0         0         0
         0         0         0         0         0         0         0         0
         0         0         0         0         0         0         0         0
         0         0         0         0         0         0         0         0
         0         0         0         0         0         0         0         0
         0         0         0         0         0         0         0         0
         0         0         0         0         0         0         0         0
         0         0         0         0         0         0         0         0
         0         0         0         0         0         0         0         0
         0         0         0         0         0         0         0         0
         0         0         0         0         0         0         0         0
         0         0         0         0         0         0         0         0
         0         0         0         0         0         0         0         0
         0         0         0         0         0         0         0         0
         0         0         0         0         0         0         0         0
         0         0         0         0         0         0         0         0
         0         0         0         0         0         0         0         0
         0         0         0         0         0         0         0         0
         0         0         0         0         0         0         0         0
         0         0         0         0         0         0         0         0
         0         0         0         0         0         0         0         0
         0         0         0         0         0         0         0         0
         0         0         0         0         0         0         0         0
         0         0         0         0         0         0         0         0
         0         0         0         0         0         0         0         0
         0         0         0         0         0         0         0         0
         0         0         0         0         0         0         0         0
         0         0         0         0         0         0         0         0
         0         0         0         0         0         0         0         0
         0         0         0         0         0         0         0         0
         0         0         0         0         0         0         0         0
         0         0         0         0         0         0         0         0
         0         0         0         0         0         0         0         0
         0         0         0         0         0         0         0         0
         0         0         0         0         0         0         0         0
         0         0         0         0         0         0         0         0
         0         0         0         0         0         0         0         0
         0         0         0         0         0         0         0         0
         0         0         0         0         0         0         0         0
         0         0         0         0         0         0         0         0
         0         0         0         0         0         0         0         0
         0         0         0         0         0         0         0         0
         0         0         0         0         0         0         0         0
         0         0         0         0         0         0         0         0
         0         0         0         0         0         0         0         0
         0         0         0         0         0         0         0         0
         0         0         0         0         0         0         0         0
         0         0         0         0         0         0         0         0
         0         0         0         0         0         0         0         0
         0         0         0         0         0         0         0         0
         0         0         0         0         0         0         0         0
         0         0         0         0         0         0         0         0
         0         0         0         0         0         0         0         0
         0         0         0         0         0         0         0         0
         0         0         0         0         0         0         0         0
         0         0         0         0         0         0         0         0
         0         0         0         0         0         0         0         0
         0         0         0         0         0         0         0         0
         0         0         0         0         0         0         0         0
         0         0         0         0         0         0         0         0
         0         0         0         0         0         0         0         0
         0         0         0         0         0         0         0         0
         0         0         0         0         0         0         0         0
         0         0         0         0         0         0         0         0
         0         0         0         0         0         0         0         0
         0         0         0         0         0         0         0         0
         0         0         0         0         0         0         0         0
         0         0         0         0         0         0         0         0
         0         0         0         0         0         0         0         0
         0         0         0         0         0         0         0         0
         0         0         0         0         0         0         0         0
         0         0         0         0         0         0         0         0
         0         0         0         0         0         0         0         0
         0         0         0         0         0         0         0         0
         0         0         0         0         0         0         0         0
         0         0         0         0         0         0         0         0
         0         0         0         0         0         0         0         0
         0         0         0         0         0         0         0         0
         0         0         0         0         0         0         0         0
         0         0         0         0         0         0         0         0
         0         0         0         0         0         0         0         0
         0         0         0         0         0         0         0         0
         0         0         0         0         0         0         0         0
         0         0         0         0         0         0         0         0
         0         0         0         0         0         0         0         0
         0         0         0         0         0         0         0         0
         0         0         0         0         0         0         0         0
         0         0         0         0         0         0         0         0
         0         0         0         0         0         0         0         0
         0         0         0         0         0         0         0         0
         0         0         0         0         0         0         0         0
         0         0         0         0         0         0         0         0
         0         0         0         0         0         0         0         0
         0         0         0         0         0         0         0         0
         0         0         0         0         0         0         0         0
         0         0         0         0         0         0         0         0
         0         0         0         0         0         0         0         0
         0         0         0         0         0         0         0         0
         0         0         0         0         0         0         0         0
         0         0         0         0         0         0         0         0
         0         0         0         0         0         0         0         0
         0         0         0         0         0         0         0         0
         0         0         0         0         0         0         0         0
         0         0         0         0         0         0         0         0
         0         0         0         0         0         0         0         0
         0         0         0         0         0         0         0         0
         0         0         0         0         0         0         0         0
         0         0         0         0         0         0         0         0
         0         0         0         0         0         0         0         0
         0         0         0         0         0         0         0         0
         0         0         0         0         0         0         0         0
         0         0         0         0         0         0         0         0
         0         0         0         0         0         0         0         0
         0         0         0         0         0         0         0         0
         0         0         0         0         0         0         0         0
         0         0         0         0         0         0         0         0
         0         0         0         0         0         0         0         0
         0         0         0         0         0         0         0         0
         0         0         0         0         0         0         0         0
         0         0         0         0         0         0         0         0
         0         0         0         0         0         0         0         0
         0         0         0         0         0         0         0         0
         0         0         0         0         0         0         0         0
         0         0         0         0         0         0         0         0
         0         0         0         0         0         0         0         0
         0         0         0         0         0         0         0         0
         0         0         0         0         0         0         0         0
         0         0         0         0         0         0         0         0
         0         0         0         0         0         0         0         0
         0         0         0         0         0         0         0         0
         0         0         0         0         0         0         0         0
         0         0         0         0         0         0         0         0
         0         0         0         0         0         0         0         0
         0         0         0         0         0         0         0         0
         0         0         0         0         0         0         0         0
         0         0         0         0         0         0         0         0
         0         0         0         0         0         0         0         0
         0         0         0         0         0         0         0         0
         0         0         0         0         0         0         0         0
         0         0         0         0         0         0         0         0
         0         0         0         0         0         0         0         0
         0         0         0         0         0         0         0         0
         0         0         0         0         0         0         0         0
         0         0         0         0         0         0         0         0
         0         0         0         0         0         0         0         0
         0         0         0         0         0         0         0         0
         0         0         0         0         0         0         0         0
         0         0         0         0         0         0         0         0
         0         0         0         0         0         0         0         0
         0         0         0         0         0         0         0         0
         0         0         0         0         0         0         0         0
         0         0         0         0         0         0         0         0
         0         0         0         0         0         0         0         0
         0         0         0         0         0         0         0         0
         0         0         0         0         0         0         0         0
         0         0         0         0         0         0         0         0
         0         0         0         0         0         0         0         0
         0         0         0         0         0         0         0         0
         0         0         0         0         0         0         0         0
         0         0         0         0         0         0         0         0
         0         0         0         0         0         0         0         0
         0         0         0         0         0         0         0         0
         0         0         0         0         0         0         0         0
         0         0         0         0         0         0         0         0
         0         0         0         0         0         0         0         0
         0         0         0         0         0         0         0         0
         0         0         0         0         0         0         0         0
         0         0         0         0         0         0         0         0
         0         0         0         0         0         0         0         0
         0         0         0         0         0         0         0         0
         0         0         0         0         0         0         0         0
         0         0         0         0         0         0         0         0
         0         0         0         0         0         0         0         0
         0         0         0         0         0         0         0         0
         0         0         0         0         0         0         0         0
         0         0         0         0         0         0         0         0
         0         0         0         0         0         0         0         0
         0         0         0         0         0         0         0         0
         0         0         0         0         0         0         0         0
         0         0         0         0         0         0         0         0
         0         0         0         0         0         0         0         0
         0         0         0         0         0         0         0         0
         0         0         0         0         0         0         0         0
         0         0         0         0         0         0         0         0
         0         0         0         0         0         0         0         0
         0         0         0         0         0         0         0         0
         0         0         0         0         0         0         0         0
         0         0         0         0         0         0         0         0
         0         0         0         0         0         0         0         0
         0         0         0         0         0         0         0         0
         0         0         0         0         0         0         0         0
         0         0         0         0         0         0         0         0
         0         0         0         0         0         0         0         0
         0         0         0         0         0         0         0         0
         0         0         0         0         0         0         0         0
         0         0         0         0         0         0         0         0
         0         0         0         0         0         0         0         0
         0         0         0         0         0         0         0         0
         0         0         0         0         0         0         0         0
         0         0         0         0         0         0         0         0
         0         0         0         0         0         0         0         0
         0         0         0         0         0         0         0         0
         0         0         0         0         0         0         0         0
         0         0         0         0         0         0         0         0
         0         0         0         0         0         0         0         0
         0         0         0         0         0         0         0         0
         0         0         0         0         0         0         0         0
         0         0         0         0         0         0         0         0
         0         0         0         0         0         0         0         0
         0         0         0         0         0         0         0         0
         0         0         0         0         0         0         0         0
         0         0         0         0         0         0         0         0
         0         0         0         0         0         0         0         0
         0         0         0         0         0         0         0         0
         0         0         0         0         0         0         0         0
         0         0         0         0         0         0         0         0
         0         0         0         0         0         0         0         0
         0         0         0         0         0         0         0         0
         0         0         0         0         0         0         0         0
         0         0         0         0         0         0         0         0
         0         0         0         0         0         0         0         0
         0         0         0         0         0         0         0         0
         0         0         0         0         0         0         0         0
         0         0         0         0         0         0         0         0
         0         0         0         0         0         0         0         0
         0         0         0         0         0         0         0         0
         0         0         0         0         0         0         0         0
         0         0         0         0         0         0         0         0
         0         0         0         0         0         0         0         0
         0         0         0         0         0         0         0         0
         0         0         0         0         0         0         0         0
         0         0         0         0         0         0         0         0
         0         0         0         0         0         0         0         0
         0         0         0         0         0         0         0         0
         0         0         0         0         0         0         0         0
         0         0         0         0         0         0         0         0
         0         0         0         0         0         0         0         0
         0         0         0         0         0         0         0         0
         0         0         0         0         0         0         0         0
         0         0         0         0         0         0         0         0
         0         0         0         0         0         0         0         0
         0         0         0         0         0         0         0         0
         0         0         0         0         0         0         0         0
         0         0         0         0         0         0         0         0
         0         0         0         0         0         0         0         0
         0         0         0         0         0         0         0         0
         0         0         0         0         0         0         0         0
         0         0         0         0         0         0         0         0
         0         0         0         0         0         0         0         0
         0         0         0         0         0         0         0         0
         0         0         0         0         0         0         0         0
         0         0         0         0         0         0         0         0
         0         0         0         0         0         0         0         0
         0         0         0         0         0         0         0         0
         0         0         0         0         0         0         0         0
         0         0         0         0         0         0         0         0
         0         0         0         0         0         0         0         0
         0         0         0         0         0         0         0         0
         0         0         0         0         0         0         0         0
         0         0         0         0         0         0         0         0
         0         0         0         0         0         0         0         0
         0         0         0         0         0         0         0         0
         0         0         0         0         0         0         0         0
         0         0         0         0         0         0         0         0
         0         0         0         0         0         0         0         0
         0         0         0         0         0         0         0         0
         0         0         0         0         0         0         0         0
         0         0         0         0         0         0         0         0
         0         0         0         0         0         0         0         0
         0         0         0         0         0         0         0         0
         0         0         0         0         0         0         0         0
         0         0         0         0         0         0         0         0
         0         0         0         0         0         0         0         0
         0         0         0         0         0         0         0         0
         0         0         0         0         0         0         0         0
         0         0         0         0         0         0         0         0
         0         0         0         0         0         0         0         0
         0         0         0         0         0         0         0         0
         0         0         0         0         0         0         0         0
         0         0         0         0         0         0         0         0
         0         0         0         0         0         0         0         0
         0         0         0         0         0         0         0         0
         0         0         0         0         0         0         0         0
         0         0         0         0         0         0         0         0
         0         0         0         0         0         0         0         0
         0         0         0         0         0         0         0         0
         0         0         0         0         0         0         0         0
         0         0         0         0         0         0         0         0
         0         0         0         0         0         0         0         0
         0         0         0         0         0         0         0         0
         0         0         0         0         0         0         0         0
         0         0         0         0         0         0         0         0
         0         0         0         0         0         0         0         0
         0         0         0         0         0         0         0         0
         0         0         0         0         0         0         0         0
         0         0         0         0         0         0         0         0
         0         0         0         0         0         0         0         0
         0         0         0         0         0         0         0         0
         0         0         0         0         0         0         0         0
         0         0         0         0         0         0         0         0
         0         0         0         0         0         0         0         0
         0         0         0         0         0         0         0         0
         0         0         0         0         0         0         0         0
         0         0         0         0         0         0         0         0
         0         0         0         0         0         0         0         0
         0         0         0         0         0         0         0         0
         0         0         0         0         0         0         0         0
         0         0         0         0         0         0         0         0
         0         0         0         0         0         0         0         0
         0         0         0         0         0         0         0         0
         0         0         0         0         0         0         0         0
         0         0         0         0         0         0         0         0
         0         0         0         0         0         0         0         0
         0         0         0         0         0         0         0         0
         0         0         0         0         0         0         0         0
         0         0         0         0         0         0         0         0
         0         0         0         0         0         0         0         0
         0         0         0         0         0         0         0         0
         0         0         0         0         0         0         0         0
         0         0         0         0         0         0         0         0
         0         0         0         0         0         0         0         0
         0         0         0         0         0         0         0         0
         0         0         0         0         0         0         0         0
         0         0         0         0         0         0         0         0
         0         0         0         0         0         0         0         0
         0         0         0         0         0         0         0         0
         0         0         0         0         0         0         0         0
         0         0         0         0         0         0         0         0
         0         0         0         0         0         0         0         0
         0         0         0         0         0         0         0         0
         0         0         0         0         0         0         0         0
         0         0         0         0         0         0         0         0
         0         0         0         0         0         0         0         0
         0         0         0         0         0         0         0         0
         0         0         0         0         0         0         0         0
         0         0         0         0         0         0         0         0
         0         0         0         0         0         0         0         0
         0         0         0         0         0         0         0         0
         0         0         0         0         0         0         0         0
         0         0         0         0         0         0         0         0
         0         0         0         0         0         0         0         0
         0         0         0         0         0         0         0         0
         0         0         0         0         0         0         0         0
         0         0         0         0         0         0         0         0
         0         0         0         0         0         0         0         0
         0         0         0         0         0         0         0         0
         0         0         0         0         0         0         0         0
         0         0         0         0         0         0         0         0
         0         0         0         0         0         0         0         0
         0         0         0         0         0         0         0         0
         0         0         0         0         0         0         0         0
         0         0         0         0         0         0         0         0
         0         0         0         0         0         0         0         0
         0         0         0         0         0         0         0         0
         0         0         0         0         0         0         0         0
         0         0         0         0         0         0         0         0
         0         0         0         0         0         0         0         0
         0         0         0         0         0         0         0         0
         0         0         0         0         0         0         0         0
         0         0         0         0         0         0         0         0
         0         0         0         0         0         0         0         0
         0         0         0         0         0         0         0         0
         0         0         0         0         0         0         0         0
         0         0         0         0         0         0         0         0
         0         0         0         0         0         0         0         0
         0         0         0         0         0         0         0         0
         0         0         0         0         0         0         0         0
         0         0         0         0         0         0         0         0
         0         0         0         0         0         0         0         0
         0         0         0         0         0         0         0         0
         0         0         0         0         0         0         0         0
         0         0         0         0         0         0         0         0
         0         0         0         0         0         0         0         0
         0         0         0         0         0         0         0         0
         0         0         0         0         0         0         0         0
         0         0         0         0         0         0         0         0
         0         0         0         0         0         0         0         0
         0         0         0         0         0         0         0         0
         0         0         0         0         0         0         0         0
         0         0         0         0         0         0         0         0
         0         0         0         0         0         0         0         0
         0         0         0         0         0         0         0         0
         0         0         0         0         0         0         0         0
         0         0         0         0         0         0         0         0
         0         0         0         0         0         0         0         0
         0         0         0         0         0         0         0         0
         0         0         0         0         0         0         0         0
         0         0         0         0         0         0         0         0
         0         0         0         0         0         0         0         0
         0         0         0         0         0         0         0         0
         0         0         0         0         0         0         0         0
         0         0         0         0         0         0         0         0
         0         0         0         0         0         0         0         0
         0         0         0         0         0         0         0         0
         0         0         0         0         0         0         0         0
         0         0         0         0         0         0         0         0
         0         0         0         0         0         0         0         0
         0         0         0         0         0         0         0         0
         0         0         0         0         0         0         0         0
         0         0         0         0         0         0         0         0
         0         0         0         0         0         0         0         0
         0         0         0         0         0         0         0         0
         0         0         0         0         0         0         0         0
         0         0         0         0         0         0         0         0
         0         0         0         0         0         0         0         0
         0         0         0         0         0         0         0         0
         0         0         0         0         0         0         0         0
         0         0         0         0         0         0         0         0
         0         0         0         0         0         0         0         0
         0         0         0         0         0         0         0         0
         0         0         0         0         0         0         0         0
         0         0         0         0         0         0         0         0
         0         0         0         0         0         0         0         0
         0         0         0         0         0         0         0         0
         0         0         0         0         0         0         0         0
         0         0         0         0         0         0         0         0
         0         0         0         0         0         0         0         0
         0         0         0         0         0         0         0         0
         0         0         0         0         0         0         0         0
         0         0         0         0         0         0         0         0
         0         0         0         0         0         0         0         0
         0         0         0         0         0         0         0         0
         0         0         0         0         0         0         0         0
         0         0         0         0         0         0         0         0
         0         0         0         0         0         0         0         0
         0         0         0         0         0         0         0         0
         0         0         0         0         0         0         0         0
         0         0         0         0         0         0         0         0
         0         0         0         0         0         0         0         0
         0         0         0         0         0         0         0         0
         0         0         0         0         0         0         0         0
         0         0         0         0         0         0         0         0
         0         0         0         0         0         0         0         0
         0         0         0         0         0         0         0         0
         0         0         0         0         0         0         0         0
         0         0         0         0         0         0         0         0
         0         0         0         0         0         0         0         0
         0         0         0         0         0         0         0         0
         0         0         0         0         0         0         0         0
         0         0         0         0         0         0         0         0
         0         0         0         0         0         0         0         0
         0         0         0         0         0         0         0         0
         0         0         0         0         0         0         0         0
         0         0         0         0         0         0         0         0
         0         0         0         0         0         0         0         0
         0         0         0         0         0         0         0         0
         0         0         0         0         0         0         0         0
         0         0         0         0         0         0         0         0
         0         0         0         0         0         0         0         0
         0         0         0         0         0         0         0         0
         0         0         0         0         0         0         0         0
         0         0         0         0         0         0         0         0
         0         0         0         0         0         0         0         0
         0         0         0         0         0         0         0         0
         0         0         0         0         0         0         0         0
         0         0         0         0         0         0         0         0
         0         0         0         0         0         0         0         0
         0         0         0         0         0         0         0         0
         0         0         0         0         0         0         0         0
         0         0         0         0         0         0         0         0
         0         0         0         0         0         0         0         0
         0         0         0         0         0         0         0         0
         0         0         0         0         0         0         0         0
         0         0         0         0         0         0         0         0
         0         0         0         0         0         0         0         0
         0         0         0         0         0         0         0         0
         0         0         0         0         0         0         0         0
         0         0         0         0         0         0         0         0
         0         0         0         0         0         0         0         0
         0         0         0         0         0         0         0         0
         0         0         0         0         0         0         0         0
         0         0         0         0         0         0         0         0
         0         0         0         0         0         0         0         0
         0         0         0         0         0         0         0         0
         0         0         0         0         0         0         0         0
         0         0         0         0         0         0         0         0
         0         0         0         0         0         0         0         0
         0         0         0         0         0         0         0         0
         0         0         0         0         0         0         0         0
         0         0         0         0         0         0         0         0
         0         0         0         0         0         0         0         0
         0         0         0         0         0         0         0         0
         0         0         0         0         0         0         0         0
         0         0         0         0         0         0         0         0
         0         0         0         0         0         0         0         0
         0         0         0         0         0         0         0         0
         0         0         0         0         0         0         0         0
         0         0         0         0         0         0         0         0
         0         0         0         0         0         0         0         0
         0         0         0         0         0         0         0         0
         0         0         0         0         0         0         0         0
         0         0         0         0         0         0         0         0
         0         0         0         0         0         0         0         0
         0         0         0         0         0         0         0         0
         0         0         0         0         0         0         0         0
         0         0         0         0         0         0         0         0
         0         0         0         0         0         0         0         0
         0         0         0         0         0         0         0         0
         0         0         0         0         0         0         0         0
         0         0         0         0         0         0         0         0
         0         0         0         0         0         0         0         0
         0         0         0         0         0         0         0         0
         0         0         0         0         0         0         0         0
         0         0         0         0         0         0         0         0
         0         0         0         0         0         0         0         0
         0         0         0         0         0         0         0         0
         0         0         0         0         0         0         0         0
         0         0         0         0         0         0         0         0
         0         0         0         0         0         0         0         0
         0         0         0         0         0         0         0         0
         0         0         0         0         0         0         0         0
         0         0         0         0         0         0         0         0
         0         0         0         0         0         0         0         0
         0         0         0         0         0         0         0         0
         0         0         0         0         0         0         0         0
         0         0         0         0         0         0         0         0
         0         0         0         0         0         0         0         0
         0         0         0         0         0         0         0         0
         0         0         0         0         0         0         0         0
         0         0         0         0         0         0         0         0
         0         0         0         0         0         0         0         0
         0         0         0         0         0         0         0         0
         0         0         0         0         0         0         0         0
         0         0         0         0         0         0         0         0
         0         0         0         0         0         0         0         0
         0         0         0         0         0         0         0         0
         0         0         0         0         0         0         0         0
         0         0         0         0         0         0         0         0
         0         0         0         0         0         0         0         0
         0         0         0         0         0         0         0         0
         0         0         0         0         0         0         0         0
         0         0         0         0         0         0         0         0
         0         0         0         0         0         0         0         0
         0         0         0         0         0         0         0         0
         0         0         0         0         0         0         0         0
         0         0         0         0         0         0         0         0
         0         0         0         0         0         0         0         0
         0         0         0         0         0         0         0         0
         0         0         0         0         0         0         0         0
         0         0         0         0         0         0         0         0
         0         0         0         0         0         0         0         0
         0         0         0         0         0         0         0         0
         0         0         0         0         0         0         0         0
         0         0         0         0         0         0         0         0
         0         0         0         0         0         0         0         0
         0         0         0         0         0         0         0         0
         0         0         0         0         0         0         0         0
         0         0         0         0         0         0         0         0
         0         0         0         0         0         0         0         0
         0         0         0         0         0         0         0         0
         0         0         0         0         0         0         0         0
         0         0         0         0         0         0         0         0
         0         0         0         0         0         0         0         0
         0         0         0         0         0         0         0         0
         0         0         0         0         0         0         0         0
         0         0         0         0         0         0         0         0
         0         0         0         0         0         0         0         0
         0         0         0         0         0         0         0         0
         0         0         0         0         0         0         0         0
         0         0         0         0         0         0         0         0
         0         0         0         0         0         0         0         0
         0         0         0         0         0         0         0         0
         0         0         0         0         0         0         0         0
         0         0         0         0         0         0         0         0
         0         0         0         0         0         0         0         0
         0         0         0         0         0         0         0         0
         0         0         0         0         0         0         0         0
         0         0         0         0         0         0         0         0
         0         0         0         0         0         0         0         0
         0         0         0         0         0         0         0         0
         0         0         0         0         0         0         0         0
         0         0         0         0         0         0         0         0
         0         0         0         0         0         0         0         0
         0         0         0         0         0         0         0         0
         0         0         0         0         0         0         0         0
         0         0         0         0         0         0         0         0
         0         0         0         0         0         0         0         0
         0         0         0         0         0         0         0         0
         0         0         0         0         0         0         0         0
         0         0         0         0         0         0         0         0
         0         0         0         0         0         0         0         0
         0         0         0         0         0         0         0         0
         0         0         0         0         0         0         0         0
         0         0         0         0         0         0         0         0
         0         0         0         0         0         0         0         0
         0         0         0         0         0         0         0         0
         0         0         0         0         0         0         0         0
         0         0         0         0         0         0         0         0
         0         0         0         0         0         0         0         0
         0         0         0         0         0         0         0         0
         0         0         0         0         0         0         0         0
         0         0         0         0         0         0         0         0
         0         0         0         0         0         0         0         0
         0         0         0         0         0         0         0         0
         0         0         0         0         0         0         0         0
         0         0         0         0         0         0         0         0
         0         0         0         0         0         0         0         0
         0         0         0         0         0         0         0         0
         0         0         0         0         0         0         0         0
         0         0         0         0         0         0         0         0
         0         0         0         0         0         0         0         0
         0         0         0         0         0         0         0         0
         0         0         0         0         0         0         0         0
         0         0         0         0         0         0         0         0
         0         0         0         0         0         0         0         0
         0         0         0         0         0         0         0         0
         0         0         0         0         0         0         0         0
         0         0         0         0         0         0         0         0
         0         0         0         0         0         0         0         0
         0         0         0         0         0         0         0         0
         0         0         0         0         0         0         0         0
         0         0         0         0         0         0         0         0
         0         0         0         0         0         0         0         0
         0         0         0         0         0         0         0         0
         0         0         0         0         0         0         0         0
         0         0         0         0         0         0         0         0
         0         0         0         0         0         0         0         0
         0         0         0         0         0         0         0         0
         0         0         0         0         0         0         0         0
         0         0         0         0         0         0         0         0
         0         0         0         0         0         0         0         0
         0         0         0         0         0         0         0         0
         0         0         0         0         0         0         0         0
         0         0         0         0         0         0         0         0
         0         0         0         0         0         0         0         0
         0         0         0         0         0         0         0         0
         0         0         0         0         0         0         0         0
         0         0         0         0         0         0         0         0
         0         0         0         0         0         0         0         0
         0         0         0         0         0         0         0         0
         0         0         0         0         0         0         0         0
         0         0         0         0         0         0         0         0
         0         0         0         0         0         0         0         0
         0         0         0         0         0         0         0         0
         0         0         0         0         0         0         0         0
         0         0         0         0         0         0         0         0
         0         0         0         0         0         0         0         0
         0         0         0         0         0         0         0         0
         0         0         0         0         0         0         0         0
         0         0         0         0         0         0         0         0
         0         0         0         0         0         0         0         0
         0         0         0         0         0         0         0         0
         0         0         0         0         0         0         0         0
         0         0         0         0         0         0         0         0
         0         0         0         0         0         0         0         0
         0         0         0         0         0         0         0         0
         0         0         0         0         0         0         0         0
         0         0         0         0         0         0         0         0
         0         0         0         0         0         0         0         0
         0         0         0         0         0         0         0         0
         0         0         0         0         0         0         0         0
         0         0         0         0         0         0         0         0
         0         0         0         0         0         0         0         0
         0         0         0         0         0         0         0         0
         0         0         0         0         0         0         0         0
         0         0         0         0         0         0         0         0
         0         0         0         0         0         0         0         0
         0         0         0         0         0         0         0         0
         0         0         0         0         0         0         0         0
         0         0         0         0         0         0         0         0
         0         0         0         0         0         0         0         0
         0         0         0         0         0         0         0         0
         0         0         0         0         0         0         0         0
         0         0         0         0         0         0         0         0
         0         0         0         0         0         0         0         0
         0         0         0         0         0         0         0         0
         0         0         0         0         0         0         0         0
         0         0         0         0         0         0         0         0
         0         0         0         0         0         0         0         0
         0         0         0         0         0         0         0         0
         0         0         0         0         0         0         0         0
         0         0         0         0         0         0         0         0
         0         0         0         0         0         0         0         0
         0         0         0         0         0         0         0         0
         0         0         0         0         0         0         0         0
         0         0         0         0         0         0         0         0
         0         0         0         0         0         0         0         0
         0         0         0         0         0         0         0         0
         0         0         0         0         0         0         0         0
         0         0         0         0         0         0         0         0
         0         0         0         0         0         0         0         0
         0         0         0         0         0         0         0         0
         0         0         0         0         0         0         0         0
         0         0         0         0         0         0         0         0
         0         0         0         0         0         0         0         0
         0         0         0         0         0         0         0         0
         0         0         0         0         0         0         0         0
         0         0         0         0         0         0         0         0
         0         0         0         0         0         0         0         0
         0         0         0         0         0         0         0         0
         0         0         0         0         0         0         0         0
         0         0         0         0         0         0         0         0
         0         0         0         0         0         0         0         0
         0         0         0         0         0         0         0         0
         0         0         0         0         0         0         0         0
         0         0         0         0         0         0         0         0
         0         0         0         0         0         0         0         0
         0         0         0         0         0         0         0         0
         0         0         0         0         0         0         0         0
         0         0         0         0         0         0         0         0
         0         0         0         0         0         0         0         0
         0         0         0         0         0         0         0         0
         0         0         0         0         0         0         0         0
         0         0         0         0         0         0         0         0
         0         0         0         0         0         0         0         0
         0         0         0         0         0         0         0         0
         0         0         0         0         0         0         0         0
         0         0         0         0         0         0         0         0
         0         0         0         0         0         0         0         0
         0         0         0         0         0         0         0         0
         0         0         0         0         0         0         0         0
         0         0         0         0         0         0         0         0
         0         0         0         0         0         0         0         0
         0         0         0         0         0         0         0         0
         0         0         0         0         0         0         0         0
         0         0         0         0         0         0         0         0
         0         0         0         0         0         0         0         0
         0         0         0         0         0         0         0         0
         0         0         0         0         0         0         0         0
         0         0         0         0         0         0         0         0
         0         0         0         0         0         0         0         0
         0         0         0         0         0         0         0         0
         0         0         0         0         0         0         0         0
         0         0         0         0         0         0         0         0
         0         0         0         0         0         0         0         0
         0         0         0         0         0         0         0         0
         0         0         0         0         0         0         0         0
         0         0         0         0         0         0         0         0
         0         0         0         0         0         0         0         0
         0         0         0         0         0         0         0         0
         0         0         0         0         0         0         0         0
         0         0         0         0         0         0         0         0
         0         0         0         0         0         0         0         0
         0         0         0         0         0         0         0         0
         0         0         0         0         0         0         0         0
         0         0         0         0         0         0         0         0
         0         0         0         0         0         0         0         0
         0         0         0         0         0         0         0         0
         0         0         0         0         0         0         0         0
         0         0         0         0         0         0         0         0
         0         0         0         0         0         0         0         0
         0         0         0         0         0         0         0         0
         0         0         0         0         0         0         0         0
         0         0         0         0         0         0         0         0
         0         0         0         0         0         0         0         0
         0         0         0         0         0         0         0         0
         0         0         0         0         0         0         0         0
         0         0         0         0         0         0         0         0
         0         0         0         0         0         0         0         0
         0         0         0         0         0         0         0         0
         0         0         0         0         0         0         0         0
         0         0         0         0         0         0         0         0
         0         0         0         0         0         0         0         0
         0         0         0         0         0         0         0         0
         0         0         0         0         0         0         0         0
         0         0         0         0         0         0         0         0
         0         0         0         0         0         0         0         0
         0         0         0         0         0         0         0         0
         0         0         0         0         0         0         0         0
         0         0         0         0         0         0         0         0
         0         0         0         0         0         0         0         0
         0         0         0         0         0         0         0         0
         0         0         0         0         0         0         0         0
         0         0         0         0         0         0         0         0
         0         0         0         0         0         0         0         0
         0         0         0         0         0         0         0         0
         0         0         0         0         0         0         0         0
         0         0         0         0         0         0         0         0
         0         0         0         0         0         0         0         0
         0         0         0         0         0         0         0         0
         0         0         0         0         0         0         0         0
         0         0         0         0         0         0         0         0
         0         0         0         0         0         0         0         0
         0         0         0         0         0         0         0         0
         0         0         0         0         0         0         0         0
         0         0         0         0         0         0         0         0
         0         0         0         0         0         0         0         0
         0         0         0         0         0         0         0         0
         0         0         0         0         0         0         0         0
         0         0         0         0         0         0         0         0
         0         0         0         0         0         0         0         0
         0         0         0         0         0         0         0         0
         0         0         0         0         0         0         0         0
         0         0         0         0         0         0         0         0
         0         0         0         0         0         0         0         0
         0         0         0         0         0         0         0         0
         0         0         0         0         0         0         0         0
         0         0         0         0         0         0         0         0
         0         0         0         0         0         0         0         0
         0         0         0         0         0         0         0         0
         0         0         0         0         0         0         0         0
         0         0         0         0         0         0         0         0
         0         0         0         0         0         0         0         0
         0         0         0         0         0         0         0         0
         0         0         0         0         0         0         0         0
         0         0         0         0         0         0         0         0
         0         0         0         0         0         0         0         0
         0         0         0         0         0         0         0         0
         0         0         0         0         0         0         0         0
         0         0         0         0         0         0         0         0
         0         0         0         0         0         0         0         0
         0         0         0         0         0         0         0         0
         0         0         0         0         0         0         0         0
         0         0         0         0         0         0         0         0
         0         0         0         0         0         0         0         0
         0         0         0         0         0         0         0         0
         0         0         0         0         0         0         0         0
         0         0         0         0         0         0         0         0
         0         0         0         0         0         0         0         0
         0         0         0         0         0         0         0         0
         0         0         0         0         0         0         0         0
         0         0         0         0         0         0         0         0
         0         0         0         0         0         0         0         0
         0         0         0         0         0         0         0         0
         0         0         0         0         0         0         0         0
         0         0         0         0         0         0         0         0
         0         0         0         0         0         0         0         0
         0         0         0         0         0         0         0         0
         0         0         0         0         0         0         0         0
         0         0         0         0         0         0         0         0
         0         0         0         0         0         0         0         0
         0         0         0         0         0         0         0         0
         0         0         0         0         0         0         0         0
         0         0         0         0         0         0         0         0
         0         0         0         0         0         0         0         0
         0         0         0         0         0         0         0         0
         0         0         0         0         0         0         0         0
         0         0         0         0         0         0         0         0
         0         0         0         0         0         0         0         0
         0         0         0         0         0         0         0         0
         0         0         0         0         0         0         0         0
         0         0         0         0         0         0         0         0
         0         0         0         0         0         0         0         0
         0         0         0         0         0         0         0         0
         0         0         0         0         0         0         0         0
         0         0         0         0         0         0         0         0
         0         0         0         0         0         0         0         0
         0         0         0         0         0         0         0         0
         0         0         0         0         0         0         0         0
         0         0         0         0         0         0         0         0
         0         0         0         0         0         0         0         0
         0         0         0         0         0         0         0         0
         0         0         0         0         0         0         0         0
         0         0         0         0         0         0         0         0
         0         0         0         0         0         0         0         0
         0         0         0         0         0         0         0         0
         0         0         0         0         0         0         0         0
         0         0         0         0         0         0         0         0
         0         0         0         0         0         0         0         0
         0         0         0         0         0         0         0         0
         0         0         0         0         0         0         0         0
         0         0         0         0         0         0         0         0
         0         0         0         0         0         0         0         0
         0         0         0         0         0         0         0         0
         0         0         0         0         0         0         0         0
         0         0         0         0         0         0         0         0
         0         0         0         0         0         0         0         0
         0         0         0         0         0         0         0         0
         0         0         0         0         0         0         0         0
         0         0         0         0         0         0         0         0
         0         0         0         0         0         0         0         0
         0         0         0         0         0         0         0         0
         0         0         0         0         0         0         0         0
         0         0         0         0         0         0         0         0
         0         0         0         0         0         0         0         0
         0         0         0         0         0         0         0         0
         0         0         0         0         0         0         0         0
         0         0         0         0         0         0         0         0
         0         0         0         0         0         0         0         0
         0         0         0         0         0         0         0         0
         0         0         0         0         0         0         0         0
         0         0         0         0         0         0         0         0
         0         0         0         0         0         0         0         0
         0         0         0         0         0         0         0         0
         0         0         0         0         0         0         0         0
         0         0         0         0         0         0         0         0
         0         0         0         0         0         0         0         0
         0         0         0         0         0         0         0         0
         0         0         0         0         0         0         0         0
         0         0         0         0         0         0         0         0
         0         0         0         0         0         0         0         0
         0         0         0         0         0         0         0         0
         0         0         0         0         0         0         0         0
         0         0         0         0         0         0         0         0
         0         0         0         0         0         0         0         0
         0         0         0         0         0         0         0         0
         0         0         0         0         0         0         0         0
         0         0         0         0         0         0         0         0
         0         0         0         0         0         0         0         0
         0         0         0         0         0         0         0         0
         0         0         0         0         0         0         0         0
         0         0         0         0         0         0         0         0
         0         0         0         0         0         0         0         0
         0         0         0         0         0         0         0         0
         0         0         0         0         0         0         0         0
         0         0         0         0         0         0         0         0
         0         0         0         0         0         0         0         0
         0         0         0         0         0         0         0         0
         0         0         0         0         0         0         0         0
         0         0         0         0         0         0         0         0
         0         0         0         0         0         0         0         0
         0         0         0         0         0         0         0         0
         0         0         0         0         0         0         0         0
         0         0         0         0         0         0         0         0
         0         0         0         0         0         0         0         0
         0         0         0         0         0         0         0         0
         0         0         0         0         0         0         0         0
         0         0         0         0         0         0         0         0
         0         0         0         0         0         0         0         0
         0         0         0         0         0         0         0         0
         0         0         0         0         0         0         0         0
         0         0         0         0         0         0         0         0
         0         0         0         0         0         0         0         0
         0         0         0         0         0         0         0         0
         0         0         0         0         0         0         0         0
         0         0         0         0         0         0         0         0
         0         0         0         0         0         0         0         0
         0         0         0         0         0         0         0         0
         0         0         0         0         0         0         0         0
         0         0         0         0         0         0         0         0
         0         0         0         0         0         0         0         0
         0         0         0         0         0         0         0         0
         0         0         0         0         0         0         0         0
         0         0         0         0         0         0         0         0
         0         0         0         0         0         0         0         0
         0         0         0         0         0         0         0         0
         0         0         0         0         0         0         0         0
         0         0         0         0         0         0         0         0
         0         0         0         0         0         0         0         0
         0         0         0         0         0         0         0         0
         0         0         0         0         0         0         0         0
         0         0         0         0         0         0         0         0
         0         0         0         0         0         0         0         0
         0         0         0         0         0         0         0         0
         0         0         0         0         0         0         0         0
         0         0         0         0         0         0         0         0
         0         0         0         0         0         0         0         0
         0         0         0         0         0         0         0         0
         0         0         0         0         0         0         0         0
         0         0         0         0         0         0         0         0
         0         0         0         0         0         0         0         0
         0         0         0         0         0         0         0         0
         0         0         0         0         0         0         0         0
         0         0         0         0         0         0         0         0
         0         0         0         0         0         0         0         0
         0         0         0         0         0         0         0         0
         0         0         0         0         0         0         0         0
         0         0         0         0         0         0         0         0
         0         0         0         0         0         0         0         0
         0         0         0         0         0         0         0         0
         0         0         0         0         0         0         0         0
         0         0         0         0         0         0         0         0
         0         0         0         0         0         0         0         0
         0         0         0         0         0         0         0         0
         0         0         0         0         0         0         0         0
         0         0         0         0         0         0         0         0
         0         0         0         0         0         0         0         0
         0         0         0         0         0         0         0         0
         0         0         0         0         0         0         0         0
         0         0         0         0         0         0         0         0
         0         0         0         0         0         0         0         0
         0         0         0         0         0         0         0         0
         0         0         0         0         0         0         0         0
         0         0         0         0         0         0         0         0
         0         0         0         0         0         0         0         0
         0         0         0         0         0         0         0         0
         0         0         0         0         0         0         0         0
         0         0         0         0         0         0         0         0
         0         0         0         0         0         0         0         0
         0         0         0         0         0         0         0         0
         0         0         0         0         0         0         0         0
         0         0         0         0         0         0         0         0
         0         0         0         0         0         0         0         0
         0         0         0         0         0         0         0         0
         0         0         0         0         0         0         0         0
         0         0         0         0         0         0         0         0
         0         0         0         0         0         0         0         0
         0         0         0         0         0         0         0         0
         0         0         0         0         0         0         0         0
         0         0         0         0         0         0         0         0
         0         0         0         0         0         0         0         0
         0         0         0         0         0         0         0         0
         0         0         0         0         0         0         0         0
         0         0         0         0         0         0         0         0
         0         0         0         0         0         0         0         0
         0         0         0         0         0         0         0         0
         0         0         0         0         0         0         0         0
         0         0         0         0         0         0         0         0
         0         0         0         0         0         0         0         0
         0         0         0         0         0         0         0         0
         0         0         0         0         0         0         0         0
         0         0         0         0         0         0         0         0
         0         0         0         0         0         0         0         0
         0         0         0         0         0         0         0         0
         0         0         0         0         0         0         0         0
         0         0         0         0         0         0         0         0
         0         0         0         0         0         0         0         0
         0         0         0         0         0         0         0         0
         0         0         0         0         0         0         0         0
         0         0         0         0         0         0         0         0
         0         0         0         0         0         0         0         0
         0         0         0         0         0         0         0         0
         0         0         0         0         0         0         0         0
         0         0         0         0         0         0         0         0
         0         0         0         0         0         0         0         0
         0         0         0         0         0         0         0         0
         0         0         0         0         0         0         0         0
         0         0         0         0         0         0         0         0
         0         0         0         0         0         0         0         0
         0         0         0         0         0         0         0         0
         0         0         0         0         0         0         0         0
         0         0         0         0         0         0         0         0
         0         0         0         0         0         0         0         0
         0         0         0         0         0         0         0         0
         0         0         0         0         0         0         0         0
         0         0         0         0         0         0         0         0
         0         0         0         0         0         0         0         0
         0         0         0         0         0         0         0         0
         0         0         0         0         0         0         0         0
         0         0         0         0         0         0         0         0
         0         0         0         0         0         0         0         0
         0         0         0         0         0         0         0         0
         0         0         0         0         0         0         0         0
         0         0         0         0         0         0         0         0
         0         0         0         0         0         0         0         0
         0         0         0         0         0         0         0         0
         0         0         0         0         0         0         0         0
         0         0         0         0         0         0         0         0
         0         0         0         0         0         0         0         0
         0         0         0         0         0         0         0         0
         0         0         0         0         0         0         0         0
         0         0         0         0         0         0         0         0
         0         0         0         0         0         0         0         0
         0         0         0         0         0         0         0         0
         0         0         0         0         0         0         0         0
         0         0         0         0         0         0         0         0
         0         0         0         0         0         0         0         0
         0         0         0         0         0         0         0         0
         0         0         0         0         0         0         0         0
         0         0         0         0         0         0         0         0
         0         0         0         0         0         0         0         0
         0         0         0         0         0         0         0         0
         0         0         0         0         0         0         0         0
         0         0         0         0         0         0         0         0
         0         0         0         0         0         0         0         0
         0         0         0         0         0         0         0         0
         0         0         0         0         0         0         0         0
         0         0         0         0         0         0         0         0
         0         0         0         0         0         0         0         0
         0         0         0         0         0         0         0         0
         0         0         0         0         0         0         0         0
         0         0         0         0         0         0         0         0
         0         0         0         0         0         0         0         0
         0         0         0         0         0         0         0         0
         0         0         0         0         0         0         0         0
         0         0         0         0         0         0         0         0
         0         0         0         0         0         0         0         0
         0         0         0         0         0         0         0         0
         0         0         0         0         0         0         0         0
         0         0         0         0         0         0         0         0
         0         0         0         0         0         0         0         0
         0         0         0         0         0         0         0         0
         0         0         0         0         0         0         0         0
         0         0         0         0         0         0         0         0
         0         0         0         0         0         0         0         0
         0         0         0         0         0         0         0         0
         0         0         0         0         0         0         0         0
         0         0         0         0         0         0         0         0
         0         0         0         0         0         0         0         0
         0         0         0         0         0         0         0         0
         0         0         0         0         0         0         0         0
         0         0         0         0         0         0         0         0
         0         0         0         0         0         0         0         0
         0         0         0         0         0         0         0         0
         0         0         0         0         0         0         0         0
         0         0         0         0         0         0         0         0
         0         0         0         0         0         0         0         0
         0         0         0         0         0         0         0         0
         0         0         0         0         0         0         0         0
         0         0         0         0         0         0         0         0
         0         0         0         0         0         0         0         0
         0         0         0         0         0         0         0         0
         0         0         0         0         0         0         0         0
         0         0         0         0         0         0         0         0
         0         0         0         0         0         0         0         0
         0         0         0         0         0         0         0         0
         0         0         0         0         0         0         0         0
         0         0         0         0         0         0         0         0
         0         0         0         0         0         0         0         0
         0         0         0         0         0         0         0         0
         0         0         0         0         0         0         0         0
         0         0         0         0         0         0         0         0
         0         0         0         0         0         0         0         0
         0         0         0         0         0         0         0         0
         0         0         0         0         0         0         0         0
         0         0         0         0         0         0         0         0
         0         0         0         0         0         0         0         0
         0         0         0         0         0         0         0         0
         0         0         0         0         0         0         0         0
         0         0         0         0         0         0         0         0
         0         0         0         0         0         0         0         0
         0         0         0         0         0         0         0         0
         0         0         0         0         0         0         0         0
         0         0         0         0         0         0         0         0
         0         0         0         0         0         0         0         0
         0         0         0         0         0         0         0         0
         0         0         0         0         0         0         0         0
         0         0         0         0         0         0         0         0
         0         0         0         0         0         0         0         0
         0         0         0         0         0         0         0         0
         0         0         0         0         0         0         0         0
         0         0         0         0         0         0         0         0
         0         0         0         0         0         0         0         0
         0         0         0         0         0         0         0         0
         0         0         0         0         0         0         0         0
         0         0         0         0         0         0         0         0
         0         0         0         0         0         0         0         0
         0         0         0         0         0         0         0         0
         0         0         0         0         0         0         0         0
         0         0         0         0         0         0         0         0
         0         0         0         0         0         0         0         0
         0         0         0         0         0         0         0         0
         0         0         0         0         0         0         0         0
         0         0         0         0         0         0         0         0
         0         0         0         0         0         0         0         0
         0         0         0         0         0         0         0         0
         0         0         0         0         0         0         0         0
         0         0         0         0         0         0         0         0
         0         0         0         0         0         0         0         0
         0         0         0         0         0         0         0         0
         0         0         0         0         0         0         0         0
         0         0         0         0         0         0         0         0
         0         0         0         0         0         0         0         0
         0         0         0         0         0         0         0         0
         0         0         0         0         0         0         0         0
         0         0         0         0         0         0         0         0
         0         0         0         0         0         0         0         0
         0         0         0         0         0         0         0         0
         0         0         0         0         0         0         0         0
         0         0         0         0         0         0         0         0
         0         0         0         0         0         0         0         0
         0         0         0         0         0         0         0         0
         0         0         0         0         0         0         0         0
         0         0         0         0         0         0         0         0
         0         0         0         0         0         0         0         0
         0         0         0         0         0         0         0         0
         0         0         0         0         0         0         0         0
         0         0         0         0         0         0         0         0
         0         0         0         0         0         0         0         0
         0         0         0         0         0         0         0         0
         0         0         0         0         0         0         0         0
         0         0         0         0         0         0         0         0
         0         0         0         0         0         0         0         0
         0         0         0         0         0         0         0         0
         0         0         0         0         0         0         0         0
         0         0         0         0         0         0         0         0
         0         0         0         0         0         0         0         0
         0         0         0         0         0         0         0         0
         0         0         0         0         0         0         0         0
         0         0         0         0         0         0         0         0
         0         0         0         0         0         0         0         0
         0         0         0         0         0         0         0         0
         0         0         0         0         0         0         0         0
         0         0         0         0         0         0         0         0
         0         0         0         0         0         0         0         0
         0         0         0         0         0         0         0         0
         0         0         0         0         0         0         0         0
         0         0         0         0         0         0         0         0
         0         0         0         0         0         0         0         0
         0         0         0         0         0         0         0         0
         0         0         0         0         0         0         0         0
         0         0         0         0         0         0         0         0
         0         0         0         0         0         0         0         0
         0         0         0         0         0         0         0         0
         0         0         0         0         0         0         0         0
         0         0         0         0         0         0         0         0
         0         0         0         0         0         0         0         0
         0         0         0         0         0         0         0         0
         0         0         0         0         0         0         0         0
         0         0         0         0         0         0         0         0
         0         0         0         0         0         0         0         0
         0         0         0         0         0         0         0         0
         0         0         0         0         0         0         0         0
         0         0         0         0         0         0         0         0
         0         0         0         0         0         0         0         0
         0         0         0         0         0         0         0         0
         0         0         0         0         0         0         0         0
         0         0         0         0         0         0         0         0
         0         0         0         0         0         0         0         0
         0         0         0         0         0         0         0         0
         0         0         0         0         0         0         0         0
         0         0         0         0         0         0         0         0
         0         0         0         0         0         0         0         0
         0         0         0         0         0         0         0         0
         0         0         0         0         0         0         0         0
         0         0         0         0         0         0         0         0
         0         0         0         0         0         0         0         0
         0         0         0         0         0         0         0         0
         0         0         0         0         0         0         0         0
         0         0         0         0         0         0         0         0
         0         0         0         0         0         0         0         0
         0         0         0         0         0         0         0         0
         0         0         0         0         0         0         0         0
         0         0         0         0         0         0         0         0
         0         0         0         0         0         0         0         0
         0         0         0         0         0         0         0         0
         0         0         0         0         0         0         0         0
         0         0         0         0         0         0         0         0
         0         0         0         0         0         0         0         0
         0         0         0         0         0         0         0         0
         0         0         0         0         0         0         0         0
         0         0         0         0         0         0         0         0
         0         0         0         0         0         0         0         0
         0         0         0         0         0         0         0         0
         0         0         0         0         0         0         0         0
         0         0         0         0         0         0         0         0
         0         0         0         0         0         0         0         0
         0         0         0         0         0         0         0         0
         0         0         0         0         0         0         0         0
         0         0         0         0         0         0         0         0
         0         0         0         0         0         0         0         0
         0         0         0         0         0         0         0         0
         0         0         0         0         0         0         0         0
         0         0         0         0         0         0         0         0
         0         0         0         0         0         0         0         0
         0         0         0         0         0         0         0         0
         0         0         0         0         0         0         0         0
         0         0         0         0         0         0         0         0
         0         0         0         0         0         0         0         0
         0         0         0         0         0         0         0         0
         0         0         0         0         0         0         0         0
         0         0         0         0         0         0         0         0
         0         0         0         0         0         0         0         0
         0         0         0         0         0         0         0         0
         0         0         0         0         0         0         0         0
         0         0         0         0         0         0         0         0
         0         0         0         0         0         0         0         0
         0         0         0         0         0         0         0         0
         0         0         0         0         0         0         0         0
         0         0         0         0         0         0         0         0
         0         0         0         0         0         0         0         0
         0         0         0         0         0         0         0         0
         0         0         0         0         0         0         0         0
         0         0         0         0         0         0         0         0
         0         0         0         0         0         0         0         0
         0         0         0         0         0         0         0         0
         0         0         0         0         0         0         0         0
         0         0         0         0         0         0         0         0
         0         0         0         0         0         0         0         0
         0         0         0         0         0         0         0         0
         0         0         0         0         0         0         0         0
         0         0         0         0         0         0         0         0
         0         0         0         0         0         0         0         0
         0         0         0         0         0         0         0         0
         0         0         0         0         0         0         0         0
         0         0         0         0         0         0         0         0
         0         0         0         0         0         0         0         0
         0         0         0         0         0         0         0         0
         0         0         0         0         0         0         0         0
         0         0         0         0         0         0         0         0
         0         0         0         0         0         0         0         0
         0         0         0         0         0         0         0         0
         0         0         0         0         0         0         0         0
         0         0         0         0         0         0         0         0
         0         0         0         0         0         0         0         0
         0         0         0         0         0         0         0         0
         0         0         0         0         0         0         0         0
         0         0         0         0         0         0         0         0
         0         0         0         0         0         0         0         0
         0         0         0         0         0         0         0         0
         0         0         0         0         0         0         0         0
         0         0         0         0         0         0         0         0
         0         0         0         0         0         0         0         0
         0         0         0         0         0         0         0         0
         0         0         0         0         0         0         0         0
         0         0         0         0         0         0         0         0
         0         0         0         0         0         0         0         0
         0         0         0         0         0         0         0         0
         0         0         0         0         0         0         0         0
         0         0         0         0         0         0         0         0
         0         0         0         0         0         0         0         0
         0         0         0         0         0         0         0         0
         0         0         0         0         0         0         0         0
         0         0         0         0         0         0         0         0
         0         0         0         0         0         0         0         0
         0         0         0         0         0         0         0         0
         0         0         0         0         0         0         0         0
         0         0         0         0         0         0         0         0
         0         0         0         0         0         0         0         0
         0         0         0         0         0         0         0         0
         0         0         0         0         0         0         0         0
         0         0         0         0         0         0         0         0
         0         0         0         0         0         0         0         0
         0         0         0         0         0         0         0         0
         0         0         0         0         0         0         0         0
         0         0         0         0         0         0         0         0
         0         0         0         0         0         0         0         0
         0         0         0         0         0         0         0         0
         0         0         0         0         0         0         0         0
         0         0         0         0         0         0         0         0
         0         0         0         0         0         0         0         0
         0         0         0         0         0         0         0         0
         0         0         0         0         0         0         0         0
         0         0         0         0         0         0         0         0
         0         0         0         0         0         0         0         0
         0         0         0         0         0         0         0         0
         0         0         0         0         0         0         0         0
         0         0         0         0         0         0         0         0
         0         0         0         0         0         0         0         0
         0         0         0         0         0         0         0         0
         0         0         0         0         0         0         0         0
         0         0         0         0         0         0         0         0
         0         0         0         0         0         0         0         0
         0         0         0         0         0         0         0         0
         0         0         0         0         0         0         0         0
         0         0         0         0         0         0         0         0
         0         0         0         0         0         0         0         0
         0         0         0         0         0         0         0         0
         0         0         0         0         0         0         0         0
         0         0         0         0         0         0         0         0
         0         0         0         0         0         0         0         0
         0         0         0         0         0         0         0         0
         0         0         0         0         0         0         0         0
         0         0         0         0         0         0         0         0
         0         0         0         0         0         0         0         0
         0         0         0         0         0         0         0         0
         0         0         0         0         0         0         0         0
         0         0         0         0         0         0         0         0
         0         0         0         0         0         0         0         0
         0         0         0         0         0         0         0         0
         0         0         0         0         0         0         0         0
         0         0         0         0         0         0         0         0
         0         0         0         0         0         0         0         0
         0         0         0         0         0         0         0         0
         0         0         0         0         0         0         0         0
         0         0         0         0         0         0         0         0
         0         0         0         0         0         0         0         0
         0         0         0         0         0         0         0         0
         0         0         0         0         0         0         0         0
         0         0         0         0         0         0         0         0
         0         0         0         0         0         0         0         0
         0         0         0         0         0         0         0         0
         0         0         0         0         0         0         0         0
         0         0         0         0         0         0         0         0
         0         0         0         0         0         0         0         0
         0         0         0         0         0         0         0         0
         0         0         0         0         0         0         0         0
         0         0         0         0         0         0         0         0
         0         0         0         0         0         0         0         0
         0         0         0         0         0         0         0         0
         0         0         0         0         0         0         0         0
         0         0         0         0         0         0         0         0
         0         0         0         0         0         0         0         0
         0         0         0         0         0         0         0         0
         0         0         0         0         0         0         0         0
         0         0         0         0         0         0         0         0
         0         0         0         0         0         0         0         0
         0         0         0         0         0         0         0         0
         0         0         0         0         0         0         0         0
         0         0         0         0         0         0         0         0
         0         0         0         0         0         0         0         0
         0         0         0         0         0         0         0         0
         0         0         0         0         0         0         0         0
         0         0         0         0         0         0         0         0
         0         0         0         0         0         0         0         0
         0         0         0         0         0         0         0         0
         0         0         0         0         0         0         0         0
         0         0         0         0         0         0         0         0
         0         0         0         0         0         0         0         0
         0         0         0         0         0         0         0         0
         0         0         0         0         0         0         0         0
         0         0         0         0         0         0         0         0
         0         0         0         0         0         0         0         0
         0         0         0         0         0         0         0         0
         0         0         0         0         0         0         0         0
         0         0         0         0         0         0         0         0
         0         0         0         0         0         0         0         0
         0         0         0         0         0         0         0         0
         0         0         0         0         0         0         0         0
         0         0         0         0         0         0         0         0
         0         0         0         0         0         0         0         0
         0         0         0         0         0         0         0         0
         0         0         0         0         0         0         0         0
         0         0         0         0         0         0         0         0
         0         0         0         0         0         0         0         0
         0         0         0         0         0         0         0         0
         0         0         0         0         0         0         0         0
         0         0         0         0         0         0         0         0
         0         0         0         0         0         0         0         0
         0         0         0         0         0         0         0         0
         0         0         0         0         0         0         0         0
         0         0         0         0         0         0         0         0
         0         0         0         0         0         0         0         0
         0         0         0         0         0         0         0         0
         0         0         0         0         0         0         0         0
         0         0         0         0         0         0         0         0
         0         0         0         0         0         0         0         0
         0         0         0         0         0         0         0         0
         0         0         0         0         0         0         0         0
         0         0         0         0         0         0         0         0
         0         0         0         0         0         0         0         0
         0         0         0         0         0         0         0         0
         0         0         0         0         0         0         0         0
         0         0         0         0         0         0         0         0
         0         0         0         0         0         0         0         0
         0         0         0         0         0         0         0         0
         0         0         0         0         0         0         0         0
         0         0         0         0         0         0         0         0
         0         0         0         0         0         0         0         0
         0         0         0         0         0         0         0         0
         0         0         0         0         0         0         0         0
         0         0         0         0         0         0         0         0
         0         0         0         0         0         0         0         0
         0         0         0         0         0         0         0         0
         0         0         0         0         0         0         0         0
         0         0         0         0         0         0         0         0
         0         0         0         0         0         0         0         0
         0         0         0         0         0         0         0         0
         0         0         0         0         0         0         0         0
         0         0         0         0         0         0         0         0
         0         0         0         0         0         0         0         0
         0         0         0         0         0         0         0         0
         0         0         0         0         0         0         0         0
         0         0         0         0         0         0         0         0
         0         0         0         0         0         0         0         0
         0         0         0         0         0         0         0         0
         0         0         0         0         0         0         0         0
         0         0         0         0         0         0         0         0
         0         0         0         0         0         0         0         0
         0         0         0         0         0         0         0         0
         0         0         0         0         0         0         0         0
         0         0         0         0         0         0         0         0
         0         0         0         0         0         0         0         0
         0         0         0         0         0         0         0         0
         0         0         0         0         0         0         0         0
         0         0         0         0         0         0         0         0
         0         0         0         0         0         0         0         0
         0         0         0         0         0         0         0         0
         0         0         0         0         0         0         0         0
         0         0         0         0         0         0         0         0
         0         0         0         0         0         0         0         0
         0         0         0         0         0         0         0         0
         0         0         0         0         0         0         0         0
         0         0         0         0         0         0         0         0
         0         0         0         0         0         0         0         0
         0         0         0         0         0         0         0         0
         0         0         0         0         0         0         0         0
         0         0         0         0         0         0         0         0
         0         0         0         0         0         0         0         0
         0         0         0         0         0         0         0         0
         0         0         0         0         0         0         0         0
         0         0         0         0         0         0         0         0
         0         0         0         0         0         0         0         0
         0         0         0         0         0         0         0         0
         0         0         0         0         0         0         0         0
         0         0         0         0         0         0         0         0
         0         0         0         0         0         0         0         0
         0         0         0         0         0         0         0         0
         0         0         0         0         0         0         0         0
         0         0         0         0         0         0         0         0
         0         0         0         0         0         0         0         0
         0         0         0         0         0         0         0         0
         0         0         0         0         0         0         0         0
         0         0         0         0         0         0         0         0
         0         0         0         0         0         0         0         0
         0         0         0         0         0         0         0         0
         0         0         0         0         0         0         0         0
         0         0         0         0         0         0         0         0
         0         0         0         0         0         0         0         0
         0         0         0         0         0         0         0         0
         0         0         0         0         0         0         0         0
         0         0         0         0         0         0         0         0
         0         0         0         0         0         0         0         0
         0         0         0         0         0         0         0         0
         0         0         0         0         0         0         0         0
         0         0         0         0         0         0         0         0
         0         0         0         0         0         0         0         0
         0         0         0         0         0         0         0         0
         0         0         0         0         0         0         0         0
         0         0         0         0         0         0         0         0
         0         0         0         0         0         0         0         0
         0         0         0         0         0         0         0         0
         0         0         0         0         0         0         0         0
         0         0         0         0         0         0         0         0
         0         0         0         0         0         0         0         0
         0         0         0         0         0         0         0         0
         0         0         0         0         0         0         0         0
         0         0         0         0         0         0         0         0
         0         0         0         0         0         0         0         0
         0         0         0         0         0         0         0         0
         0         0         0         0         0         0         0         0
         0         0         0         0         0         0         0         0
         0         0         0         0         0         0         0         0
         0         0         0         0         0         0         0         0
         0         0         0         0         0         0         0         0
         0         0         0         0         0         0         0         0
         0         0         0         0         0         0         0         0
         0         0         0         0         0         0         0         0
         0         0         0         0         0         0         0         0
         0         0         0         0         0         0         0         0
         0         0         0         0         0         0         0         0
         0         0         0         0         0         0         0         0
         0         0         0         0         0         0         0         0
         0         0         0         0         0         0         0         0
         0         0         0         0         0         0         0         0
         0         0         0         0         0         0         0         0
         0         0         0         0         0         0         0         0
         0         0         0         0         0         0         0         0
         0         0         0         0         0         0         0         0
         0         0         0         0         0         0         0         0
         0         0         0         0         0         0         0         0
         0         0         0         0         0         0         0         0
         0         0         0         0         0         0         0         0
         0         0         0         0         0         0         0         0
         0         0         0         0         0         0         0         0
         0         0         0         0         0         0         0         0
         0         0         0         0         0         0         0         0
         0         0         0         0         0         0         0         0
         0         0         0         0         0         0         0         0
         0         0         0         0         0         0         0         0
         0         0         0         0         0         0         0         0
         0         0         0         0         0         0         0         0
         0         0         0         0         0         0         0         0
         0         0         0         0         0         0         0         0
         0         0         0         0         0         0         0         0
         0         0         0         0         0         0         0         0
         0         0         0         0         0         0         0         0
         0         0         0         0         0         0         0         0
         0         0         0         0         0         0         0         0
         0         0         0         0         0         0         0         0
         0         0         0         0         0         0         0         0
         0         0         0         0         0         0         0         0
         0         0         0         0         0         0         0         0
         0         0         0         0         0         0         0         0
         0         0         0         0         0         0         0         0
         0         0         0         0         0         0         0         0
         0         0         0         0         0         0         0         0
         0         0         0         0         0         0         0         0
         0         0         0         0         0         0         0         0
         0         0         0         0         0         0         0         0
         0         0         0         0         0         0         0         0
         0         0         0         0         0         0         0         0
         0         0         0         0         0         0         0         0
         0         0         0         0         0         0         0         0
         0         0         0         0         0         0         0         0
         0         0         0         0         0         0         0         0
         0         0         0         0         0         0         0         0
         0         0         0         0         0         0         0         0
         0         0         0         0         0         0         0         0
         0         0         0         0         0         0         0         0
         0         0         0         0         0         0         0         0
         0         0         0         0         0         0         0         0
         0         0         0         0         0         0         0         0
         0         0         0         0         0         0         0         0
         0         0         0         0         0         0         0         0
         0         0         0         0         0         0         0         0
         0         0         0         0         0         0         0         0
         0         0         0         0         0         0         0         0
         0         0         0         0         0         0         0         0
         0         0         0         0         0         0         0         0
         0         0         0         0         0         0         0         0
         0         0         0         0         0         0         0         0
         0         0         0         0         0         0         0         0
         0         0         0         0         0         0         0         0
         0         0         0         0         0         0         0         0
         0         0         0         0         0         0         0         0
         0         0         0         0         0         0         0         0
         0         0         0         0         0         0         0         0
         0         0         0         0         0         0         0         0
         0         0         0         0         0         0         0         0
         0         0         0         0         0         0         0         0
         0         0         0         0         0         0         0         0
         0         0         0         0         0         0         0         0
         0         0         0         0         0         0         0         0
         0         0         0         0         0         0         0         0
         0         0         0         0         0         0         0         0
         0         0         0         0         0         0         0         0
         0         0         0         0         0         0         0         0
         0         0         0         0         0         0         0         0
         0         0         0         0         0         0         0         0
         0         0         0         0         0         0         0         0
         0         0         0         0         0         0         0         0
         0         0         0         0         0         0         0         0
         0         0         0         0         0         0         0         0
         0         0         0         0         0         0         0         0
         0         0         0         0         0         0         0         0
         0         0         0         0         0         0         0         0
         0         0         0         0         0         0         0         0
         0         0         0         0         0         0         0         0
         0         0         0         0         0         0         0         0
         0         0         0         0         0         0         0         0
         0         0         0         0         0         0         0         0
         0         0         0         0         0         0         0         0
         0         0         0         0         0         0         0         0
         0         0         0         0         0         0         0         0
         0         0         0         0         0         0         0         0
         0         0         0         0         0         0         0         0
         0         0         0         0         0         0         0         0
         0         0         0         0         0         0         0         0
         0         0         0         0         0         0         0         0
         0         0         0         0         0         0         0         0
         0         0         0         0         0         0         0         0
         0         0         0         0         0         0         0         0
         0         0         0         0         0         0         0         0
         0         0         0         0         0         0         0         0
         0         0         0         0         0         0         0         0
         0         0         0         0         0         0         0         0
         0         0         0         0         0         0         0         0
         0         0         0         0         0         0         0         0
         0         0         0         0         0         0         0         0
         0         0         0         0         0         0         0         0
         0         0         0         0         0         0         0         0
         0         0         0         0         0         0         0         0
         0         0         0         0         0         0         0         0
         0         0         0         0         0         0         0         0
         0         0         0         0         0         0         0         0
         0         0         0         0         0         0         0         0
         0         0         0         0         0         0         0         0
         0         0         0         0         0         0         0         0
         0         0         0         0         0         0         0         0
         0         0         0         0         0         0         0         0
         0         0         0         0         0         0         0         0
         0         0         0         0         0         0         0         0
         0         0         0         0         0         0         0         0
         0         0         0         0         0         0         0         0
         0         0         0         0         0         0         0         0
         0         0         0         0         0         0         0         0
         0         0         0         0         0         0         0         0
         0         0         0         0         0         0         0         0
         0         0         0         0         0         0         0         0
         0         0         0         0         0         0         0         0
         0         0         0         0         0         0         0         0
         0         0         0         0         0         0         0         0
         0         0         0         0         0         0         0         0
         0         0         0         0         0         0         0         0
         0         0         0         0         0         0         0         0
         0         0         0         0         0         0         0         0
         0         0         0         0         0         0         0         0
         0         0         0         0         0         0         0         0
         0         0         0         0         0         0         0         0
         0         0         0         0         0         0         0         0
         0         0         0         0         0         0         0         0
         0         0         0         0         0         0         0         0
         0         0         0         0         0         0         0         0
         0         0         0         0         0         0         0         0
         0         0         0         0         0         0         0         0
         0         0         0         0         0         0         0         0
         0         0         0         0         0         0         0         0
         0         0         0         0         0         0         0         0
         0         0         0         0         0         0         0         0
         0         0         0         0         0         0         0         0
         0         0         0         0         0         0         0         0
         0         0         0         0         0         0         0         0
         0         0         0         0         0         0         0         0
         0         0         0         0         0         0         0         0
         0         0         0         0         0         0         0         0
         0         0         0         0         0         0         0         0
         0         0         0         0         0         0         0         0
         0         0         0         0         0         0         0         0
         0         0         0         0         0         0         0         0
         0         0         0         0         0         0         0         0
         0         0         0         0         0         0         0         0
         0         0         0         0         0         0         0         0
         0         0         0         0         0         0         0         0
         0         0         0         0         0         0         0         0
         0         0         0         0         0         0         0         0
         0         0         0         0         0         0         0         0
         0         0         0         0         0         0         0         0
         0         0         0         0         0         0         0         0
         0         0         0         0         0         0         0         0
         0         0         0         0         0         0         0         0
         0         0         0         0         0         0         0         0
         0         0         0         0         0         0         0         0
         0         0         0         0         0         0         0         0
         0         0         0         0         0         0         0         0
         0         0         0         0         0         0         0         0
         0         0         0         0         0         0         0         0
         0         0         0         0         0         0         0         0
         0         0         0         0         0         0         0         0
         0         0         0         0         0         0         0         0
         0         0         0         0         0         0         0         0
         0         0         0         0         0         0         0         0
         0         0         0         0         0         0         0         0
         0         0         0         0         0         0         0         0
         0         0         0         0         0         0         0         0
         0         0         0         0         0         0         0         0
         0         0         0         0         0         0         0         0
         0         0         0         0         0         0         0         0
         0         0         0         0         0         0         0         0
         0         0         0         0         0         0         0         0
         0         0         0         0         0         0         0         0
         0         0         0         0         0         0         0         0
         0         0         0         0         0         0         0         0
         0         0         0         0         0         0         0         0
         0         0         0         0         0         0         0         0
         0         0         0         0         0         0         0         0
         0         0         0         0         0         0         0         0
         0         0         0         0         0         0         0         0
         0         0         0         0         0         0         0         0
         0         0         0         0         0         0         0         0
         0         0         0         0         0         0         0         0
         0         0         0         0         0         0         0         0
         0         0         0         0         0         0         0         0
         0         0         0         0         0         0         0         0
         0         0         0         0         0         0         0         0
         0         0         0         0         0         0         0         0
         0         0         0         0         0         0         0         0
         0         0         0         0         0         0         0         0
         0         0         0         0         0         0         0         0
         0         0         0         0         0         0         0         0
         0         0         0         0         0         0         0         0
         0         0         0         0         0         0         0         0
         0         0         0         0         0         0         0         0
         0         0         0         0         0         0         0         0
         0         0         0         0         0         0         0         0
         0         0         0         0         0         0         0         0
         0         0         0         0         0         0         0         0
         0         0         0         0         0         0         0         0
         0         0         0         0         0         0         0         0
         0         0         0         0         0         0         0         0
         0         0         0         0         0         0         0         0
         0         0         0         0         0         0         0         0
         0         0         0         0         0         0         0         0
         0         0         0         0         0         0         0         0
         0         0         0         0         0         0         0         0
         0         0         0         0         0         0         0         0
         0         0         0         0         0         0         0         0
         0         0         0         0         0         0         0         0
         0         0         0         0         0         0         0         0
         0         0         0         0         0         0         0         0
         0         0         0         0         0         0         0         0
         0         0         0         0         0         0         0         0
         0         0         0         0         0         0         0         0
         0         0         0         0         0         0         0         0
         0         0         0         0         0         0         0         0
         0         0         0         0         0         0         0         0
         0         0         0         0         0         0         0         0
         0         0         0         0         0         0         0         0
         0         0         0         0         0         0         0         0
         0         0         0         0         0         0         0         0
         0         0         0         0         0         0         0         0
         0         0         0         0         0         0         0         0
         0         0         0         0         0         0         0         0
         0         0         0         0         0         0         0         0
         0         0         0         0         0         0         0         0
         0         0         0         0         0         0         0         0
         0         0         0         0         0         0         0         0
         0         0         0         0         0         0         0         0
         0         0         0         0         0         0         0         0
         0         0         0         0         0         0         0         0
         0         0         0         0         0         0         0         0
         0         0         0         0         0         0         0         0
         0         0         0         0         0         0         0         0
         0         0         0         0         0         0         0         0
         0         0         0         0         0         0         0         0
         0         0         0         0         0         0         0         0
         0         0         0         0         0         0         0         0
         0         0         0         0         0         0         0         0
         0         0         0         0         0         0         0         0
         0         0         0         0         0         0         0         0
         0         0         0         0         0         0         0         0
         0         0         0         0         0         0         0         0
         0         0         0         0         0         0         0         0
         0         0         0         0         0         0         0         0
         0         0         0         0         0         0         0         0
         0         0         0         0         0         0         0         0
         0         0         0         0         0         0         0         0
         0         0         0         0         0         0         0         0
         0         0         0         0         0         0         0         0
         0         0         0         0         0         0         0         0
         0         0         0         0         0         0         0         0
         0         0         0         0         0         0         0         0
         0         0         0         0         0         0         0         0
         0         0         0         0         0         0         0         0
         0         0         0         0         0         0         0         0
         0         0         0         0         0         0         0         0
         0         0         0         0         0         0         0         0
         0         0         0         0         0         0         0         0
         0         0         0         0         0         0         0         0
         0         0         0         0         0         0         0         0
         0         0         0         0         0         0         0         0
         0         0         0         0         0         0         0         0
         0         0         0         0         0         0         0         0
         0         0         0         0         0         0         0         0
         0         0         0         0         0         0         0         0
         0         0         0         0         0         0         0         0
         0         0         0         0         0         0         0         0
         0         0         0         0         0         0         0         0
         0         0         0         0         0         0         0         0
         0         0         0         0         0         0         0         0
         0         0         0         0         0         0         0         0
         0         0         0         0         0         0         0         0
         0         0         0         0         0         0         0         0
         0         0         0         0         0         0         0         0
         0         0         0         0         0         0         0         0
         0         0         0         0         0         0         0         0
         0         0         0         0         0         0         0         0
         0         0         0         0         0         0         0         0
         0         0         0         0         0         0         0         0
         0         0         0         0         0         0         0         0
         0         0         0         0         0         0         0         0
         0         0         0         0         0         0         0         0
         0         0         0         0         0         0         0         0
         0         0         0         0         0         0         0         0
         0         0         0         0         0         0         0         0
         0         0         0         0         0         0         0         0
         0         0         0         0         0         0         0         0
         0         0         0         0         0         0         0         0
         0         0         0         0         0         0         0         0
         0         0         0         0         0         0         0         0
         0         0         0         0         0         0         0         0
         0         0         0         0         0         0         0         0
         0         0         0         0         0         0         0         0
         0         0         0         0         0         0         0         0
         0         0         0         0         0         0         0         0
         0         0         0         0         0         0         0         0
         0         0         0         0         0         0         0         0
         0         0         0         0         0         0         0         0
         0         0         0         0         0         0         0         0
         0         0         0         0         0         0         0         0
         0         0         0         0         0         0         0         0
         0         0         0         0         0         0         0         0
         0         0         0         0         0         0         0         0
         0         0         0         0         0         0         0         0
         0         0         0         0         0         0         0         0
         0         0         0         0         0         0         0         0
         0         0         0         0         0         0         0         0
         0         0         0         0         0         0         0         0
         0         0         0         0         0         0         0         0
         0         0         0         0         0         0         0         0
         0         0         0         0         0         0         0         0
         0         0         0         0         0         0         0         0
         0         0         0         0         0         0         0         0
         0         0         0         0         0         0         0         0
         0         0         0         0         0         0         0         0
         0         0         0         0         0         0         0         0
         0         0         0         0         0         0         0         0
         0         0         0         0         0         0         0         0
         0         0         0         0         0         0         0         0
         0         0         0         0         0         0         0         0
         0         0         0         0         0         0         0         0
         0         0         0         0         0         0         0         0
         0         0         0         0         0         0         0         0
         0         0         0         0         0         0         0         0
         0         0         0         0         0         0         0         0
         0         0         0         0         0         0         0         0
         0         0         0         0         0         0         0         0
         0         0         0         0         0         0         0         0
         0         0         0         0         0         0         0         0
         0         0         0         0         0         0         0         0
         0         0         0         0         0         0         0         0
         0         0         0         0         0         0         0         0
         0         0         0         0         0         0         0         0
         0         0         0         0         0         0         0         0
         0         0         0         0         0         0         0         0
         0         0         0         0         0         0         0         0
         0         0         0         0         0         0         0         0
         0         0         0         0         0         0         0         0
         0         0         0         0         0         0         0         0
         0         0         0         0         0         0         0         0
         0         0         0         0         0         0         0         0
         0         0         0         0         0         0         0         0
         0         0         0         0         0         0         0         0
         0         0         0         0         0         0         0         0
         0         0         0         0         0         0         0         0
         0         0         0         0         0         0         0         0
         0         0         0         0         0         0         0         0
         0         0         0         0         0         0         0         0
         0         0         0         0         0         0         0         0
         0         0         0         0         0         0         0         0
         0         0         0         0         0         0         0         0
         0         0         0         0         0         0         0         0
         0         0         0         0         0         0         0         0
         0         0         0         0         0         0         0         0
         0         0         0         0         0         0         0         0
         0         0         0         0         0         0         0         0
         0         0         0         0         0         0         0         0
         0         0         0         0         0         0         0         0
         0         0         0         0         0         0         0         0
         0         0         0         0         0         0         0         0
         0         0         0         0         0         0         0         0
         0         0         0         0         0         0         0         0
         0         0         0         0         0         0         0         0
         0         0         0         0         0         0         0         0
         0         0         0         0         0         0         0         0
         0         0         0         0         0         0         0         0
         0         0         0         0         0         0         0         0
         0         0         0         0         0         0         0         0
         0         0         0         0         0         0         0         0
         0         0         0         0         0         0         0         0
         0         0         0         0         0         0         0         0
         0         0         0         0         0         0         0         0
         0         0         0         0         0         0         0         0
         0         0         0         0         0         0         0         0
         0         0         0         0         0         0         0         0
         0         0         0         0         0         0         0         0
         0         0         0         0         0         0         0         0
         0         0         0         0         0         0         0         0
         0         0         0         0         0         0         0         0
         0         0         0         0         0         0         0         0
         0         0         0         0         0         0         0         0
         0         0         0         0         0         0         0         0
         0         0         0         0         0         0         0         0
         0         0         0         0         0         0         0         0
         0         0         0         0         0         0         0         0
         0         0         0         0         0         0         0         0
         0         0         0         0         0         0         0         0
         0         0         0         0         0         0         0         0
         0         0         0         0         0         0         0         0
         0         0         0         0         0         0         0         0
         0         0         0         0         0         0         0         0
         0         0         0         0         0         0         0         0
         0         0         0         0         0         0         0         0
         0         0         0         0         0         0         0         0
         0         0         0         0         0         0         0         0
         0         0         0         0         0         0         0         0
         0         0         0         0         0         0         0         0
         0         0         0         0         0         0         0         0
         0         0         0         0         0         0         0         0
         0         0         0         0         0         0         0         0
         0         0         0         0         0         0         0         0
         0         0         0         0         0         0         0         0
         0         0         0         0         0         0         0         0
         0         0         0         0         0         0         0         0
         0         0         0         0         0         0         0         0
         0         0         0         0         0         0         0         0
         0         0         0         0         0         0         0         0
         0         0         0         0         0         0         0         0
         0         0         0         0         0         0         0         0
         0         0         0         0         0         0         0         0
         0         0         0         0         0         0         0         0
         0         0         0         0         0         0         0         0
         0         0         0         0         0         0         0         0
         0         0         0         0         0         0         0         0
         0         0         0         0         0         0         0         0
         0         0         0         0         0         0         0         0
         0         0         0         0         0         0         0         0
         0         0         0         0         0         0         0         0
         0         0         0         0         0         0         0         0
         0         0         0         0         0         0         0         0
         0         0         0         0         0         0         0         0
         0         0         0         0         0         0         0         0
         0         0         0         0         0         0         0         0
         0         0         0         0         0         0         0         0
         0         0         0         0         0         0         0         0
         0         0         0         0         0         0         0         0
         0         0         0         0         0         0         0         0
         0         0         0         0         0         0         0         0
         0         0         0         0         0         0         0         0
         0         0         0         0         0         0         0         0
         0         0         0         0         0         0         0         0
         0         0         0         0         0         0         0         0
         0         0         0         0         0         0         0         0
         0         0         0         0         0         0         0         0
         0         0         0         0         0         0         0         0
         0         0         0         0         0         0         0         0
         0         0         0         0         0         0         0         0
         0         0         0         0         0         0         0         0
         0         0         0         0         0         0         0         0
         0         0         0         0         0         0         0         0
         0         0         0         0         0         0         0         0
         0         0         0         0         0         0         0         0
         0         0         0         0         0         0         0         0
         0         0         0         0         0         0         0         0
         0         0         0         0         0         0         0         0
         0         0         0         0         0         0         0         0
         0         0         0         0         0         0         0         0
         0         0         0         0         0         0         0         0
         0         0         0         0         0         0         0         0
         0         0         0         0         0         0         0         0
         0         0         0         0         0         0         0         0
         0         0         0         0         0         0         0         0
         0         0         0         0         0         0         0         0
         0         0         0         0         0         0         0         0
         0         0         0         0         0         0         0         0
         0         0         0         0         0         0         0         0
         0         0         0         0         0         0         0         0
         0         0         0         0         0         0         0         0
         0         0         0         0         0         0         0         0
         0         0         0         0         0         0         0         0
         0         0         0         0         0         0         0         0
         0         0         0         0         0         0         0         0
         0         0         0         0         0         0         0         0
         0         0         0         0         0         0         0         0
         0         0         0         0         0         0         0         0
         0         0         0         0         0         0         0         0
         0         0         0         0         0         0         0         0
         0         0         0         0         0         0         0         0
         0         0         0         0         0         0         0         0
         0         0         0         0         0         0         0         0
         0         0         0         0         0         0         0         0
         0         0         0         0         0         0         0         0
         0         0         0         0         0         0         0         0
         0         0         0         0         0         0         0         0
         0         0         0         0         0         0         0         0
         0         0         0         0         0         0         0         0
         0         0         0         0         0         0         0         0
         0         0         0         0         0         0         0         0
         0         0         0         0         0         0         0         0
         0         0         0         0         0         0         0         0
         0         0         0         0         0         0         0         0
         0         0         0         0         0         0         0         0
         0         0         0         0         0         0         0         0
         0         0         0         0         0         0         0         0
         0         0         0         0         0         0         0         0
         0         0         0         0         0         0         0         0
         0         0         0         0         0         0         0         0
         0         0         0         0         0         0         0         0
         0         0         0         0         0         0         0         0
         0         0         0         0         0         0         0         0
         0         0         0         0         0         0         0         0
         0         0         0         0         0         0         0         0
         0         0         0         0         0         0         0         0
         0         0         0         0         0         0         0         0
         0         0         0         0         0         0         0         0
         0         0         0         0         0         0         0         0
         0         0         0         0         0         0         0         0
         0         0         0         0         0         0         0         0
         0         0         0         0         0         0         0         0
         0         0         0         0         0         0         0         0
         0         0         0         0         0         0         0         0
         0         0         0         0         0         0         0         0
         0         0         0         0         0         0         0         0
         0         0         0         0         0         0         0         0
         0         0         0         0         0         0         0         0
         0         0         0         0         0         0         0         0
         0         0         0         0         0         0         0         0
         0         0         0         0         0         0         0         0
         0         0         0         0         0         0         0         0
         0         0         0         0         0         0         0         0
         0         0         0         0         0         0         0         0
         0         0         0         0         0         0         0         0
         0         0         0         0         0         0         0         0
         0         0         0         0         0         0         0         0
         0         0         0         0         0         0         0         0
         0         0         0         0         0         0         0         0
         0         0         0         0         0         0         0         0
         0         0         0         0         0         0         0         0
         0         0         0         0         0         0         0         0
         0         0         0         0         0         0         0         0
         0         0         0         0         0         0         0         0
         0         0         0         0         0         0         0         0
         0         0         0         0         0         0         0         0
         0         0         0         0         0         0         0         0
         0         0         0         0         0         0         0         0
         0         0         0         0         0         0         0         0
         0         0         0         0         0         0         0         0
         0         0         0         0         0         0         0         0
         0         0         0         0         0         0         0         0
         0         0         0         0         0         0         0         0
         0         0         0         0         0         0         0         0
         0         0         0         0         0         0         0         0
         0         0         0         0         0         0         0         0
         0         0         0         0         0         0         0         0
         0         0         0         0         0         0         0         0
         0         0         0         0         0         0         0         0
         0         0         0         0         0         0         0         0
         0         0         0         0         0         0         0         0
         0         0         0         0         0         0         0         0
         0         0         0         0         0         0         0         0
         0         0         0         0         0         0         0         0
         0         0         0         0         0         0         0         0
         0         0         0         0         0         0         0         0
         0         0         0         0         0         0         0         0
         0         0         0         0         0         0         0         0
         0         0         0         0         0         0         0         0
         0         0         0         0         0         0         0         0
         0         0         0         0         0         0         0         0
         0         0         0         0         0         0         0         0
         0         0         0         0         0         0         0         0
         0         0         0         0         0         0         0         0
         0         0         0         0         0         0         0         0
         0         0         0         0         0         0         0         0
         0         0         0         0         0         0         0         0
         0         0         0         0         0         0         0         0
         0         0         0         0         0         0         0         0
         0         0         0         0         0         0         0         0
         0         0         0         0         0         0         0         0
         0         0         0         0         0         0         0         0
         0         0         0         0         0         0         0         0
         0         0         0         0         0         0         0         0
         0         0         0         0         0         0         0         0
         0         0         0         0         0         0         0         0
         0         0         0         0         0         0         0         0
         0         0         0         0         0         0         0         0
         0         0         0         0         0         0         0         0
         0         0         0         0         0         0         0         0
         0         0         0         0         0         0         0         0
         0         0         0         0         0         0         0         0
         0         0         0         0         0         0         0         0
         0         0         0         0         0         0         0         0
         0         0         0         0         0         0         0         0
         0         0         0         0         0         0         0         0
         0         0         0         0         0         0         0         0
         0         0         0         0         0         0         0         0
         0         0         0         0         0         0         0         0
         0         0         0         0         0         0         0         0
         0         0         0         0         0         0         0         0
         0         0         0         0         0         0         0         0
         0         0         0         0         0         0         0         0
         0         0         0         0         0         0         0         0
         0         0         0         0         0         0         0         0
         0         0         0         0         0         0         0         0
         0         0         0         0         0         0         0         0
         0         0         0         0         0         0         0         0
         0         0         0         0         0         0         0         0
         0         0         0         0         0         0         0         0
         0         0         0         0         0         0         0         0
         0         0         0         0         0         0         0         0
         0         0         0         0         0         0         0         0
         0         0         0         0         0         0         0         0
         0         0         0         0         0         0         0         0
         0         0         0         0         0         0         0         0
         0         0         0         0         0         0         0         0
         0         0         0         0         0         0         0         0
         0         0         0         0         0         0         0         0
         0         0         0         0         0         0         0         0
         0         0         0         0         0         0         0         0
         0         0         0         0         0         0         0         0
         0         0         0         0         0         0         0         0
         0         0         0         0         0         0         0         0
         0         0         0         0         0         0         0         0
         0         0         0         0         0         0         0         0
         0         0         0         0         0         0         0         0
         0         0         0         0         0         0         0         0
         0         0         0         0         0         0         0         0
         0         0         0         0         0         0         0         0
         0         0         0         0         0         0         0         0
         0         0         0         0         0         0         0         0
         0         0         0         0         0         0         0         0
         0         0         0         0         0         0         0         0
         0         0         0         0         0         0         0         0
         0         0         0         0         0         0         0         0
         0         0         0         0         0         0         0         0
         0         0         0         0         0         0         0         0
         0         0         0         0         0         0         0         0
         0         0         0         0         0         0         0         0
         0         0         0         0         0         0         0         0
         0         0         0         0         0         0         0         0
         0         0         0         0         0         0         0         0
         0         0         0         0         0         0         0         0
         0         0         0         0         0         0         0         0
         0         0         0         0         0         0         0         0
         0         0         0         0         0         0         0         0
         0         0         0         0         0         0         0         0
         0         0         0         0         0         0         0         0
         0         0         0         0         0         0         0         0
         0         0         0         0         0         0         0         0
         0         0         0         0         0         0         0         0
         0         0         0         0         0         0         0         0
         0         0         0         0         0         0         0         0
         0         0         0         0         0         0         0         0
         0         0         0         0         0         0         0         0
         0         0         0         0         0         0         0         0
         0         0         0         0         0         0         0         0
         0         0         0         0         0         0         0         0
         0         0         0         0         0         0         0         0
         0         0         0         0         0         0         0         0
         0         0         0         0         0         0         0         0
         0         0         0         0         0         0         0         0
         0         0         0         0         0         0         0         0
         0         0         0         0         0         0         0         0
         0         0         0         0         0         0         0         0
         0         0         0         0         0         0         0         0
         0         0         0         0         0         0         0         0
         0         0         0         0         0         0         0         0
         0         0         0         0         0         0         0         0
         0         0         0         0         0         0         0         0
         0         0         0         0         0         0         0         0
         0         0         0         0         0         0         0         0
         0         0         0         0         0         0         0         0
         0         0         0         0         0         0         0         0
         0         0         0         0         0         0         0         0
         0         0         0         0         0         0         0         0
         0         0         0         0         0         0         0         0
         0         0         0         0         0         0         0         0
         0         0         0         0         0         0         0         0
         0         0         0         0         0         0         0         0
         0         0         0         0         0         0         0         0
         0         0         0         0         0         0         0         0
         0         0         0         0         0         0         0         0
         0         0         0         0         0         0         0         0
         0         0         0         0         0         0         0         0
         0         0         0         0         0         0         0         0
         0         0         0         0         0         0         0         0
         0         0         0         0         0         0         0         0
         0         0         0         0         0         0         0         0
         0         0         0         0         0         0         0         0
         0         0         0         0         0         0         0         0
         0         0         0         0         0         0         0         0
         0         0         0         0         0         0         0         0
         0         0         0         0         0         0         0         0
         0         0         0         0         0         0         0         0
         0         0         0         0         0         0         0         0
         0         0         0         0         0         0         0         0
         0         0         0         0         0         0         0         0
         0         0         0         0         0         0         0         0
         0         0         0         0         0         0         0         0
         0         0         0         0         0         0         0         0
         0         0         0         0         0         0         0         0
         0         0         0         0         0         0         0         0
         0         0         0         0         0         0         0         0
         0         0         0         0         0         0         0         0
         0         0         0         0         0         0         0         0
         0         0         0         0         0         0         0         0
         0         0         0         0         0         0         0         0
         0         0         0         0         0         0         0         0
         0         0         0         0         0         0         0         0
         0         0         0         0         0         0         0         0
         0         0         0         0         0         0         0         0
         0         0         0         0         0         0         0         0
         0         0         0         0         0         0         0         0
         0         0         0         0         0         0         0         0
         0         0         0         0         0         0         0         0
         0         0         0         0         0         0         0         0
         0         0         0         0         0         0         0         0
         0         0         0         0         0         0         0         0
         0         0         0         0         0         0         0         0
         0         0         0         0         0         0         0         0
         0         0         0         0         0         0         0         0
         0         0         0         0         0         0         0         0
         0         0         0         0         0         0         0         0
         0         0         0         0         0         0         0         0
         0         0         0         0         0         0         0         0
         0         0         0         0         0         0         0         0
         0         0         0         0         0         0         0         0
         0         0         0         0         0         0         0         0
         0         0         0         0         0         0         0         0
         0         0         0         0         0         0         0         0
         0         0         0         0         0         0         0         0
         0         0         0         0         0         0         0         0
         0         0         0         0         0         0         0         0
         0         0         0         0         0         0         0         0
         0         0         0         0         0         0         0         0
         0         0         0         0         0         0         0         0
         0         0         0         0         0         0         0         0
         0         0         0         0         0         0         0         0
         0         0         0         0         0         0         0         0
         0         0         0         0         0         0         0         0
         0         0         0         0         0         0         0         0
         0         0         0         0         0         0         0         0
         0         0         0         0         0         0         0         0
         0         0         0         0         0         0         0         0
         0         0         0         0         0         0         0         0
         0         0         0         0         0         0         0         0
         0         0         0         0         0         0         0         0
         0         0         0         0         0         0         0         0
         0         0         0         0         0         0         0         0
         0         0         0         0         0         0         0         0
         0         0         0         0         0         0         0         0
         0         0         0         0         0         0         0         0
         0         0         0         0         0         0         0         0
         0         0         0         0         0         0         0         0
         0         0         0         0         0         0         0         0
         0         0         0         0         0         0         0         0
         0         0         0         0         0         0         0         0
         0         0         0         0         0         0         0         0
         0         0         0         0         0         0         0         0
         0         0         0         0         0         0         0         0
         0         0         0         0         0         0         0         0
         0         0         0         0         0         0         0         0
         0         0         0         0         0         0         0         0
         0         0         0         0         0         0         0         0
         0         0         0         0         0         0         0         0
         0         0         0         0         0         0         0         0
         0         0         0         0         0         0         0         0
         0         0         0         0         0         0         0         0
         0         0         0         0         0         0         0         0
         0         0         0         0         0         0         0         0
         0         0         0         0         0         0         0         0
         0         0         0         0         0         0         0         0
         0         0         0         0         0         0         0         0
         0         0         0         0         0         0         0         0
         0         0         0         0         0         0         0         0
         0         0         0         0         0         0         0         0
         0         0         0         0         0         0         0         0
         0         0         0         0         0         0         0         0
         0         0         0         0         0         0         0         0
         0         0         0         0         0         0         0         0
         0         0         0         0         0         0         0         0
         0         0         0         0         0         0         0         0
         0         0         0         0         0         0         0         0
         0         0         0         0         0         0         0         0
         0         0         0         0         0         0         0         0
         0         0         0         0         0         0         0         0
         0         0         0         0         0         0         0         0
         0         0         0         0         0         0         0         0
         0         0         0         0         0         0         0         0
         0         0         0         0         0         0         0         0
         0         0         0         0         0         0         0         0
         0         0         0         0         0         0         0         0
         0         0         0         0         0         0         0         0
         0         0         0         0         0         0         0         0
         0         0         0         0         0         0         0         0
         0         0         0         0         0         0         0         0
         0         0         0         0         0         0         0         0
         0         0         0         0         0         0         0         0
         0         0         0         0         0         0         0         0
         0         0         0         0         0         0         0         0
         0         0         0         0         0         0         0         0
         0         0         0         0         0         0         0         0
         0         0         0         0         0         0         0         0
         0         0         0         0         0         0         0         0
         0         0         0         0         0         0         0         0
         0         0         0         0         0         0         0         0
         0         0         0         0         0         0         0         0
         0         0         0         0         0         0         0         0
         0         0         0         0         0         0         0         0
         0         0         0         0         0         0         0         0
         0         0         0         0         0         0         0         0
         0         0         0         0         0         0         0         0
         0         0         0         0         0         0         0         0
         0         0         0         0         0         0         0         0
         0         0         0         0         0         0         0         0
         0         0         0         0         0         0         0         0
         0         0         0         0         0         0         0         0
         0         0         0         0         0         0         0         0
         0         0         0         0         0         0         0         0
         0         0         0         0         0         0         0         0
         0         0         0         0         0         0         0         0
         0         0         0         0         0         0         0         0
         0         0         0         0         0         0         0         0
         0         0         0         0         0         0         0         0
         0         0         0         0         0         0         0         0
         0         0         0         0         0         0         0         0
         0         0         0         0         0         0         0         0
         0         0         0         0         0         0         0         0
         0         0         0         0         0         0         0         0
         0         0         0         0         0         0         0         0
         0         0         0         0         0         0         0         0
         0         0         0         0         0         0         0         0
         0         0         0         0         0         0         0         0
         0         0         0         0         0         0         0         0
         0         0         0         0         0         0         0         0
         0         0         0         0         0         0         0         0
         0         0         0         0         0         0         0         0
         0         0         0         0         0         0         0         0
         0         0         0         0         0         0         0         0
         0         0         0         0         0         0         0         0
         0         0         0         0         0         0         0         0
         0         0         0         0         0         0         0         0
         0         0         0         0         0         0         0         0
         0         0         0         0         0         0         0         0
         0         0         0         0         0         0         0         0
         0         0         0         0         0         0         0         0
         0         0         0         0         0         0         0         0
         0         0         0         0         0         0         0         0
         0         0         0         0         0         0         0         0
         0         0         0         0         0         0         0         0
         0         0         0         0         0         0         0         0
         0         0         0         0         0         0         0         0
         0         0         0         0         0         0         0         0
         0         0         0         0         0         0         0         0
         0         0         0         0         0         0         0         0
         0         0         0         0         0         0         0         0
         0         0         0         0         0         0         0         0
         0         0         0         0         0         0         0         0
         0         0         0         0         0         0         0         0
         0         0         0         0         0         0         0         0
         0         0         0         0         0         0         0         0
         0         0         0         0         0         0         0         0
         0         0         0         0         0         0         0         0
         0         0         0         0         0         0         0         0
         0         0         0         0         0         0         0         0
         0         0         0         0         0         0         0         0
         0         0         0         0         0         0         0         0
         0         0         0         0         0         0         0         0
         0         0         0         0         0         0         0         0
         0         0         0         0         0         0         0         0
         0         0         0         0         0         0         0         0
         0         0         0         0         0         0         0         0
         0         0         0         0         0         0         0         0
         0         0         0         0         0         0         0         0
         0         0         0         0         0         0         0         0
         0         0         0         0         0         0         0         0
         0         0         0         0         0         0         0         0
         0         0         0         0         0         0         0         0
         0         0         0         0         0         0         0         0
         0         0         0         0         0         0         0         0
         0         0         0         0         0         0         0         0
         0         0         0         0         0         0         0         0
         0         0         0         0         0         0         0         0
         0         0         0         0         0         0         0         0
         0         0         0         0         0         0         0         0
         0         0         0         0         0         0         0         0
         0         0         0         0         0         0         0         0
         0         0         0         0         0         0         0         0
         0         0         0         0         0         0         0         0
         0         0         0         0         0         0         0         0
         0         0         0         0         0         0         0         0
         0         0         0         0         0         0         0         0
         0         0         0         0         0         0         0         0
         0         0         0         0         0         0         0         0
         0         0         0         0         0         0         0         0
         0         0         0         0         0         0         0         0
         0         0         0         0         0         0         0         0
         0         0         0         0         0         0         0         0
         0         0         0         0         0         0         0         0
         0         0         0         0         0         0         0         0
         0         0         0         0         0         0         0         0
         0         0         0         0         0         0         0         0
         0         0         0         0         0         0         0         0
         0         0         0         0         0         0         0         0
         0         0         0         0         0         0         0         0
         0         0         0         0         0         0         0         0
         0         0         0         0         0         0         0         0
         0         0         0         0         0         0         0         0
         0         0         0         0         0         0         0         0
         0         0         0         0         0         0         0         0
         0         0         0         0         0         0         0         0
         0         0         0         0         0         0         0         0
         0         0         0         0         0         0         0         0
         0         0         0         0         0         0         0         0
         0         0         0         0         0         0         0         0
         0         0         0         0         0         0         0         0
         0         0         0         0         0         0         0         0
         0         0         0         0         0         0         0         0
         0         0         0         0         0         0         0         0
         0         0         0         0         0         0         0         0
         0         0         0         0         0         0         0         0
         0         0         0         0         0         0         0         0
         0         0         0         0         0         0         0         0
         0         0         0         0         0         0         0         0
         0         0         0         0         0         0         0         0
         0         0         0         0         0         0         0         0
         0         0         0         0         0         0         0         0
         0         0         0         0         0         0         0         0
         0         0         0         0         0         0         0         0
         0         0         0         0         0         0         0         0
         0         0         0         0         0         0         0         0
         0         0         0         0         0         0         0         0
         0         0         0         0         0         0         0         0
         0         0         0         0         0         0         0         0
         0         0         0         0         0         0         0         0
         0         0         0         0         0         0         0         0
         0         0         0         0         0         0         0         0
         0         0         0         0         0         0         0         0
         0         0         0         0         0         0         0         0
         0         0         0         0         0         0         0         0
         0         0         0         0         0         0         0         0
         0         0         0         0         0         0         0         0
         0         0         0         0         0         0         0         0
         0         0         0         0         0         0         0         0
         0         0         0         0         0         0         0         0
         0         0         0         0         0         0         0         0
         0         0         0         0         0         0         0         0
         0         0         0         0         0         0         0         0
         0         0         0         0         0         0         0         0
         0         0         0         0         0         0         0         0
         0         0         0         0         0         0         0         0
         0         0         0         0         0         0         0         0
         0         0         0         0         0         0         0         0
         0         0         0         0         0         0         0         0
         0         0         0         0         0         0         0         0
         0         0         0         0         0         0         0         0
         0         0         0         0         0         0         0         0
         0         0         0         0         0         0         0         0
         0         0         0         0         0         0         0         0
         0         0         0         0         0         0         0         0
         0         0         0         0         0         0         0         0
         0         0         0         0         0         0         0         0
         0         0         0         0         0         0         0         0
         0         0         0         0         0         0         0         0
         0         0         0         0         0         0         0         0
         0         0         0         0         0         0         0         0
         0         0         0         0         0         0         0         0
         0         0         0         0         0         0         0         0
         0         0         0         0         0         0         0         0
         0         0         0         0         0         0         0         0
         0         0         0         0         0         0         0         0
         0         0         0         0         0         0         0         0
         0         0         0         0         0         0         0         0
         0         0         0         0         0         0         0         0
         0         0         0         0         0         0         0         0
         0         0         0         0         0         0         0         0
         0         0         0         0         0         0         0         0
         0         0         0         0         0         0         0         0
         0         0         0         0         0         0         0         0
         0         0         0         0         0         0         0         0
         0         0         0         0         0         0         0         0
         0         0         0         0         0         0         0         0
         0         0         0         0         0         0         0         0
         0         0         0         0         0         0         0         0
         0         0         0         0         0         0         0         0
         0         0         0         0         0         0         0         0
         0         0         0         0         0         0         0         0
         0         0         0         0         0         0         0         0
         0         0         0         0         0         0         0         0
         0         0         0         0         0         0         0         0
         0         0         0         0         0         0         0         0
         0         0         0         0         0         0         0         0
         0         0         0         0         0         0         0         0
         0         0         0         0         0         0         0         0
         0         0         0         0         0         0         0         0
         0         0         0         0         0         0         0         0
         0         0         0         0         0         0         0         0
         0         0         0         0         0         0         0         0
         0         0         0         0         0         0         0         0
         0         0         0         0         0         0         0         0
         0         0         0         0         0         0         0         0
         0         0         0         0         0         0         0         0
         0         0         0         0         0         0         0         0
         0         0         0         0         0         0         0         0
         0         0         0         0         0         0         0         0
         0         0         0         0         0         0         0         0
         0         0         0         0         0         0         0         0
         0         0         0         0         0         0         0         0
         0         0         0         0         0         0         0         0
         0         0         0         0         0         0         0         0
         0         0         0         0         0         0         0         0
         0         0         0         0         0         0         0         0
         0         0         0         0         0         0         0         0
         0         0         0         0         0         0         0         0
         0         0         0         0         0         0         0         0
         0         0         0         0         0         0         0         0
         0         0         0         0         0         0         0         0
         0         0         0         0         0         0         0         0
         0         0         0         0         0         0         0         0
         0         0         0         0         0         0         0         0
         0         0         0         0         0         0         0         0
         0         0         0         0         0         0         0         0
         0         0         0         0         0         0         0         0
         0         0         0         0         0         0         0         0
         0         0         0         0         0         0         0         0
         0         0         0         0         0         0         0         0
         0         0         0         0         0         0         0         0
         0         0         0         0         0         0         0         0
         0         0         0         0         0         0         0         0
         0         0         0         0         0         0         0         0
         0         0         0         0         0         0         0         0
         0         0         0         0         0         0         0         0
         0         0         0         0         0         0         0         0
         0         0         0         0         0         0         0         0
         0         0         0         0         0         0         0         0
         0         0         0         0         0         0         0         0
         0         0         0         0         0         0         0         0
         0         0         0         0         0         0         0         0
         0         0         0         0         0         0         0         0
         0         0         0         0         0         0         0         0
         0         0         0         0         0         0         0         0
         0         0         0         0         0         0         0         0
         0         0         0         0         0         0         0         0
         0         0         0         0         0         0         0         0
         0         0         0         0         0         0         0         0
         0         0         0         0         0         0         0         0
         0         0         0         0         0         0         0         0
         0         0         0         0         0         0         0         0
         0         0         0         0         0         0         0         0
         0         0         0         0         0         0         0         0
         0         0         0         0         0         0         0         0
         0         0         0         0         0         0         0         0
         0         0         0         0         0         0         0         0
         0         0         0         0         0         0         0         0
         0         0         0         0         0         0         0         0
         0         0         0         0         0         0         0         0
         0         0         0         0         0         0         0         0
         0         0         0         0         0         0         0         0
         0         0         0         0         0         0         0         0
         0         0         0         0         0         0         0         0
         0         0         0         0         0         0         0         0
         0         0         0         0         0         0         0         0
         0         0         0         0         0         0         0         0
         0         0         0         0         0         0         0         0
         0         0         0         0         0         0         0         0
         0         0         0         0         0         0         0         0
         0         0         0         0         0         0         0         0
         0         0         0         0         0         0         0         0
         0         0         0         0         0         0         0         0
         0         0         0         0         0         0         0         0
         0         0         0         0         0         0         0         0
         0         0         0         0         0         0         0         0
         0         0         0         0         0         0         0         0
         0         0         0         0         0         0         0         0
         0         0         0         0         0         0         0         0
         0         0         0         0         0         0         0         0
         0         0         0         0         0         0         0         0
         0         0         0         0         0         0         0         0
         0         0         0         0         0         0         0         0
         0         0         0         0         0         0         0         0
         0         0         0         0         0         0         0         0
         0         0         0         0         0         0         0         0
         0         0         0         0         0         0         0         0
         0         0         0         0         0         0         0         0
         0         0         0         0         0         0         0         0
         0         0         0         0         0         0         0         0
         0         0         0         0         0         0         0         0
         0         0         0         0         0         0         0         0
         0         0         0         0         0         0         0         0
         0         0         0         0         0         0         0         0
         0         0         0         0         0         0         0         0
         0         0         0         0         0         0         0         0
         0         0         0         0         0         0         0         0
         0         0         0         0         0         0         0         0
         0         0         0         0         0         0         0         0
         0         0         0         0         0         0         0         0
         0         0         0         0         0         0         0         0
         0         0         0         0         0         0         0         0
         0         0         0         0         0         0         0         0
         0         0         0         0         0         0         0         0
         0         0         0         0         0         0         0         0
         0         0         0         0         0         0         0         0
         0         0         0         0         0         0         0         0
         0         0         0         0         0         0         0         0
         0         0         0         0         0         0         0         0
         0         0         0         0         0         0         0         0
         0         0         0         0         0         0         0         0
         0         0         0         0         0         0         0         0
         0         0         0         0         0         0         0         0
         0         0         0         0         0         0         0         0
         0         0         0         0         0         0         0         0
         0         0         0         0         0         0         0         0
         0         0         0         0         0         0         0         0
         0         0         0         0         0         0         0         0
         0         0         0         0         0         0         0         0
         0         0         0         0         0         0         0         0
         0         0         0         0         0         0         0         0
         0         0         0         0         0         0         0         0
         0         0         0         0         0         0         0         0
         0         0         0         0         0         0         0         0
         0         0         0         0         0         0         0         0
         0         0         0         0         0         0         0         0
         0         0         0         0         0         0         0         0
         0         0         0         0         0         0         0         0
         0         0         0         0         0         0         0         0
         0         0         0         0         0         0         0         0
         0         0         0         0         0         0         0         0
         0         0         0         0         0         0         0         0
         0         0         0         0         0         0         0         0
         0         0         0         0         0         0         0         0
         0         0         0         0         0         0         0         0
         0         0         0         0         0         0         0         0
         0         0         0         0         0         0         0         0
         0         0         0         0         0         0         0         0
         0         0         0         0         0         0         0         0
         0         0         0         0         0         0         0         0
         0         0         0         0         0         0         0         0
         0         0         0         0         0         0         0         0
         0         0         0         0         0         0         0         0
         0         0         0         0         0         0         0         0
         0         0         0         0         0         0         0         0
         0         0         0         0         0         0         0         0
         0         0         0         0         0         0         0         0
         0         0         0         0         0         0         0         0
         0         0         0         0         0         0         0         0
         0         0         0         0         0         0         0         0
         0         0         0         0         0         0         0         0
         0         0         0         0         0         0         0         0
         0         0         0         0         0         0         0         0
         0         0         0         0         0         0         0         0
         0         0         0         0         0         0         0         0
         0         0         0         0         0         0         0         0
         0         0         0         0         0         0         0         0
         0         0         0         0         0         0         0         0
         0         0         0         0         0         0         0         0
         0         0         0         0         0         0         0         0
         0         0         0         0         0         0         0         0
         0         0         0         0         0         0         0         0
         0         0         0         0         0         0         0         0
         0         0         0         0         0         0         0         0
         0         0         0         0         0         0         0         0
         0         0         0         0         0         0         0         0
         0         0         0         0         0         0         0         0
         0         0         0         0         0         0         0         0
         0         0         0         0         0         0         0         0
         0         0         0         0         0         0         0         0
         0         0         0         0         0         0         0         0
         0         0         0         0         0         0         0         0
         0         0         0         0         0         0         0         0
         0         0         0         0         0         0         0         0
         0         0         0         0         0         0         0         0
         0         0         0         0         0         0         0         0
         0         0         0         0         0         0         0         0
         0         0         0         0         0         0         0         0
         0         0         0         0         0         0         0         0
         0         0         0         0         0         0         0         0
         0         0         0         0         0         0         0         0
         0         0         0         0         0         0         0         0
         0         0         0         0         0         0         0         0
         0         0         0         0         0         0         0         0
         0         0         0         0         0         0         0         0
         0         0         0         0         0         0         0         0
         0         0         0         0         0         0         0         0
         0         0         0         0         0         0         0         0
         0         0         0         0         0         0         0         0
         0         0         0         0         0         0         0         0
         0         0         0         0         0         0         0         0
         0         0         0         0         0         0         0         0
         0         0         0         0         0         0         0         0
         0         0         0         0         0         0         0         0
         0         0         0         0         0         0         0         0
         0         0         0         0         0         0         0         0
         0         0         0         0         0         0         0         0
         0         0         0         0         0         0         0         0
         0         0         0         0         0         0         0         0
         0         0         0         0         0         0         0         0
         0         0         0         0         0         0         0         0
         0         0         0         0         0         0         0         0
         0         0         0         0         0         0         0         0
         0         0         0         0         0         0         0         0
         0         0         0         0         0         0         0         0
         0         0         0         0         0         0         0         0
         0         0         0         0         0         0         0         0
         0         0         0         0         0         0         0         0
         0         0         0         0         0         0         0         0
         0         0         0         0         0         0         0         0
         0         0         0         0         0         0         0         0
         0         0         0         0         0         0         0         0
         0         0         0         0         0         0         0         0
         0         0         0         0         0         0         0         0
         0         0         0         0         0         0         0         0
         0         0         0         0         0         0         0         0
         0         0         0         0         0         0         0         0
         0         0         0         0         0         0         0         0
         0         0         0         0         0         0         0         0
         0         0         0         0         0         0         0         0
         0         0         0         0         0         0         0         0
         0         0         0         0         0         0         0         0
         0         0         0         0         0         0         0         0
         0         0         0         0         0         0         0         0
         0         0         0         0         0         0         0         0
         0         0         0         0         0         0         0         0
         0         0         0         0         0         0         0         0
         0         0         0         0         0         0         0         0
         0         0         0         0         0         0         0         0
         0         0         0         0         0         0         0         0
         0         0         0         0         0         0         0         0
         0         0         0         0         0         0         0         0
         0         0         0         0         0         0         0         0
         0         0         0         0         0         0         0         0
         0         0         0         0         0         0         0         0
         0         0         0         0         0         0         0         0
         0         0         0         0         0         0         0         0
         0         0         0         0         0         0         0         0
         0         0         0         0         0         0         0         0
         0         0         0         0         0         0         0         0
         0         0         0         0         0         0         0         0
         0         0         0         0         0         0         0         0
         0         0         0         0         0         0         0         0
         0         0         0         0         0         0         0         0
         0         0         0         0         0         0         0         0
         0         0         0         0         0         0         0         0
         0         0         0         0         0         0         0         0
         0         0         0         0         0         0         0         0
         0         0         0         0         0         0         0         0
         0         0         0         0         0         0         0         0
         0         0         0         0         0         0         0         0
         0         0         0         0         0         0         0         0
         0         0         0         0         0         0         0         0
         0         0         0         0         0         0         0         0
         0         0         0         0         0         0         0         0
         0         0         0         0         0         0         0         0
         0         0         0         0         0         0         0         0
         0         0         0         0         0         0         0         0
         0         0         0         0         0         0         0         0
         0         0         0         0         0         0         0         0
         0         0         0         0         0         0         0         0
         0         0         0         0         0         0         0         0
         0         0         0         0         0         0         0         0
         0         0         0         0         0         0         0         0
         0         0         0         0         0         0         0         0
         0         0         0         0         0         0         0         0
         0         0         0         0         0         0         0         0
         0         0         0         0         0         0         0         0
         0         0         0         0         0         0         0         0
         0         0         0         0         0         0         0         0
         0         0         0         0         0         0         0         0
         0         0         0         0         0         0         0         0
         0         0         0         0         0         0         0         0
         0         0         0         0         0         0         0         0
         0         0         0         0         0         0         0         0
         0         0         0         0         0         0         0         0
         0         0         0         0         0         0         0         0
         0         0         0         0         0         0         0         0
         0         0         0         0         0         0         0         0
         0         0         0         0         0         0         0         0
         0         0         0         0         0         0         0         0
         0         0         0         0         0         0         0         0
         0         0         0         0         0         0         0         0
         0         0         0         0         0         0         0         0
         0         0         0         0         0         0         0         0
         0         0         0         0         0         0         0         0
         0         0         0         0         0         0         0         0
         0         0         0         0         0         0         0         0
         0         0         0         0         0         0         0         0
         0         0         0         0         0         0         0         0
         0         0         0         0         0         0         0         0
         0         0         0         0         0         0         0         0
         0         0         0         0         0         0         0         0
         0         0         0         0         0         0         0         0
         0         0         0         0         0         0         0         0
         0         0         0         0         0         0         0         0
         0         0         0         0         0         0         0         0
         0         0         0         0         0         0         0         0
         0         0         0         0         0         0         0         0
         0         0         0         0         0         0         0         0
         0         0         0         0         0         0         0         0
         0         0         0         0         0         0         0         0
         0         0         0         0         0         0         0         0
         0         0         0         0         0         0         0         0
         0         0         0         0         0         0         0         0
         0         0         0         0         0         0         0         0
         0         0         0         0         0         0         0         0
         0         0         0         0         0         0         0         0
         0         0         0         0         0         0         0         0
         0         0         0         0         0         0         0         0
         0         0         0         0         0         0         0         0
         0         0         0         0         0         0         0         0
         0         0         0         0         0         0         0         0
         0         0         0         0         0         0         0         0
         0         0         0         0         0         0         0         0
         0         0         0         0         0         0         0         0
         0         0         0         0         0         0         0         0
         0         0         0         0         0         0         0         0
         0         0         0         0         0         0         0         0
         0         0         0         0         0         0         0         0
         0         0         0         0         0         0         0         0
         0         0         0         0         0         0         0         0
         0         0         0         0         0         0         0         0
         0         0         0         0         0         0         0         0
         0         0         0         0         0         0         0         0
         0         0         0         0         0         0         0         0
         0         0         0         0         0         0         0         0
         0         0         0         0         0         0         0         0
         0         0         0         0         0         0         0         0
         0         0         0         0         0         0         0         0
         0         0         0         0         0         0         0         0
         0         0         0         0         0         0         0         0
         0         0         0         0         0         0         0         0
         0         0         0         0         0         0         0         0
         0         0         0         0         0         0         0         0
         0         0         0         0         0         0         0         0
         0         0         0         0         0         0         0         0
         0         0         0         0         0         0         0         0
         0         0         0         0         0         0         0         0
         0         0         0         0         0         0         0         0
         0         0         0         0         0         0         0         0
         0         0         0         0         0         0         0         0
         0         0         0         0         0         0         0         0
         0         0         0         0         0         0         0         0
         0         0         0         0         0         0         0         0
         0         0         0         0         0         0         0         0
         0         0         0         0         0         0         0         0
         0         0         0         0         0         0         0         0
         0         0         0         0         0         0         0         0
         0         0         0         0         0         0         0         0
         0         0         0         0         0         0         0         0
         0         0         0         0         0         0         0         0
         0         0         0         0         0         0         0         0
         0         0         0         0         0         0         0         0
         0         0         0         0         0         0         0         0
         0         0         0         0         0         0         0         0
         0         0         0         0         0         0         0         0
         0         0         0         0         0         0         0         0
         0         0         0         0         0         0         0         0
         0         0         0         0         0         0         0         0
         0         0         0         0         0         0         0         0
         0         0         0         0         0         0         0         0
         0         0         0         0         0         0         0         0
         0         0         0         0         0         0         0         0
         0         0         0         0         0         0         0         0
         0         0         0         0         0         0         0         0
         0         0         0         0         0         0         0         0
         0         0         0         0         0         0         0         0
         0         0         0         0         0         0         0         0
         0         0         0         0         0         0         0         0
         0         0         0         0         0         0         0         0
         0         0         0         0         0         0         0         0
         0         0         0         0         0         0         0         0
         0         0         0         0         0         0         0         0
         0         0         0         0         0         0         0         0
         0         0         0         0         0         0         0         0
         0         0         0         0         0         0         0         0
         0         0         0         0         0         0         0         0
         0         0         0         0         0         0         0         0
         0         0         0         0         0         0         0         0
         0         0         0         0         0         0         0         0
         0         0         0         0         0         0         0         0
         0         0         0         0         0         0         0         0
         0         0         0         0         0         0         0         0
         0         0         0         0         0         0         0         0
         0         0         0         0         0         0         0         0
         0         0         0         0         0         0         0         0
         0         0         0         0         0         0         0         0
         0         0         0         0         0         0         0         0
         0         0         0         0         0         0         0         0
         0         0         0         0         0         0         0         0
         0         0         0         0         0         0         0         0
         0         0         0         0         0         0         0         0
         0         0         0         0         0         0         0         0
         0         0         0         0         0         0         0         0
         0         0         0         0         0         0         0         0
         0         0         0         0         0         0         0         0
         0         0         0         0         0         0         0         0
         0         0         0         0         0         0         0         0
         0         0         0         0         0         0         0         0
         0         0         0         0         0         0         0         0
         0         0         0         0         0         0         0         0
         0         0         0         0         0         0         0         0
         0         0         0         0         0         0         0         0
         0         0         0         0         0         0         0         0
         0         0         0         0         0         0         0         0
         0         0         0         0         0         0         0         0
         0         0         0         0         0         0         0         0
         0         0         0         0         0         0         0         0
         0         0         0         0         0         0         0         0
         0         0         0         0         0         0         0         0
         0         0         0         0         0         0         0         0
         0         0         0         0         0         0         0         0
         0         0         0         0         0         0         0         0
         0         0         0         0         0         0         0         0
         0         0         0         0         0         0         0         0
         0         0         0         0         0         0         0         0
         0         0         0         0         0         0         0         0
         0         0         0         0         0         0         0         0
         0         0         0         0         0         0         0         0
         0         0         0         0         0         0         0         0
         0         0         0         0         0         0         0         0
         0         0         0         0         0         0         0         0
         0         0         0         0         0         0         0         0
         0         0         0         0         0         0         0         0
         0         0         0         0         0         0         0         0
         0         0         0         0         0         0         0         0
         0         0         0         0         0         0         0         0
         0         0         0         0         0         0         0         0
         0         0         0         0         0         0         0         0
         0         0         0         0         0         0         0         0
         0         0         0         0         0         0         0         0
         0         0         0         0         0         0         0         0
         0         0         0         0         0         0         0         0
         0         0         0         0         0         0         0         0
         0         0         0         0         0         0         0         0
         0         0         0         0         0         0         0         0
         0         0         0         0         0         0         0         0
         0         0         0         0         0         0         0         0
         0         0         0         0         0         0         0         0
         0         0         0         0         0         0         0         0
         0         0         0         0         0         0         0         0
         0         0         0         0         0         0         0         0
         0         0         0         0         0         0         0         0
         0         0         0         0         0         0         0         0
         0         0         0         0         0         0         0         0
         0         0         0         0         0         0         0         0
         0         0         0         0         0         0         0         0
         0         0         0         0         0         0         0         0
         0         0         0         0         0         0         0         0
         0         0         0         0         0         0         0         0
         0         0         0         0         0         0         0         0
         0         0         0         0         0         0         0         0
         0         0         0         0         0         0         0         0
         0         0         0         0         0         0         0         0
         0         0         0         0         0         0         0         0
         0         0         0         0         0         0         0         0
         0         0         0         0         0         0         0         0
         0         0         0         0         0         0         0         0
         0         0         0         0         0         0         0         0
         0         0         0         0         0         0         0         0
         0         0         0         0         0         0         0         0
         0         0         0         0         0         0         0         0
         0         0         0         0         0         0         0         0
         0         0         0         0         0         0         0         0
         0         0         0         0         0         0         0         0
         0         0         0         0         0         0         0         0
         0         0         0         0         0         0         0         0
         0         0         0         0         0         0         0         0
         0         0         0         0         0         0         0         0
         0         0         0         0         0         0         0         0
         0         0         0         0         0         0         0         0
         0         0         0         0         0         0         0         0
         0         0         0         0         0         0         0         0
         0         0         0         0         0         0         0         0
         0         0         0         0         0         0         0         0
         0         0         0         0         0         0         0         0
         0         0         0         0         0         0         0         0
         0         0         0         0         0         0         0         0
         0         0         0         0         0         0         0         0
         0         0         0         0         0         0         0         0
         0         0         0         0         0         0         0         0
         0         0         0         0         0         0         0         0
         0         0         0         0         0         0         0         0
         0         0         0         0         0         0         0         0
         0         0         0         0         0         0         0         0
         0         0         0         0         0         0         0         0
         0         0         0         0         0         0         0         0
         0         0         0         0         0         0         0         0
         0         0         0         0         0         0         0         0
         0         0         0         0         0         0         0         0
         0         0         0         0         0         0         0         0
         0         0         0         0         0         0         0         0
         0         0         0         0         0         0         0         0
         0         0         0         0         0         0         0         0
         0         0         0         0         0         0         0         0
         0         0         0         0         0         0         0         0
         0         0         0         0         0         0         0         0
         0         0         0         0         0         0         0         0
         0         0         0         0         0         0         0         0
         0         0         0         0         0         0         0         0
         0         0         0         0         0         0         0         0
         0         0         0         0         0         0         0         0
         0         0         0         0         0         0         0         0
         0         0         0         0         0         0         0         0
         0         0         0         0         0         0         0         0
         0         0         0         0         0         0         0         0
         0         0         0         0         0         0         0         0
         0         0         0         0         0         0         0         0
         0         0         0         0         0         0         0         0
         0         0         0         0         0         0         0         0
         0         0         0         0         0         0         0         0
         0         0         0         0         0         0         0         0
         0         0         0         0         0         0         0         0
         0         0         0         0         0         0         0         0
         0         0         0         0         0         0         0         0
         0         0         0         0         0         0         0         0
         0         0         0         0         0         0         0         0
         0         0         0         0         0         0         0         0
         0         0         0         0         0         0         0         0
         0         0         0         0         0         0         0         0
         0         0         0         0         0         0         0         0
         0         0         0         0         0         0         0         0
         0         0         0         0         0         0         0         0
         0         0         0         0         0         0         0         0
         0         0         0         0         0         0         0         0
         0         0         0         0         0         0         0         0
         0         0         0         0         0         0         0         0
         0         0         0         0         0         0         0         0
         0         0         0         0         0         0         0         0
         0         0         0         0         0         0         0         0
         0         0         0         0         0         0         0         0
         0         0         0         0         0         0         0         0
         0         0         0         0         0         0         0         0
         0         0         0         0         0         0         0         0
         0         0         0         0         0         0         0         0
         0         0         0         0         0         0         0         0
         0         0         0         0         0         0         0         0
         0         0         0         0         0         0         0         0
         0         0         0         0         0         0         0         0
         0         0         0         0         0         0         0         0
         0         0         0         0         0         0         0         0
         0         0         0         0         0         0         0         0
         0         0         0         0         0         0         0         0
         0         0         0         0         0         0         0         0
         0         0         0         0         0         0         0         0
         0         0         0         0         0         0         0         0
         0         0         0         0         0         0         0         0
         0         0         0         0         0         0         0         0
         0         0         0         0         0         0         0         0
         0         0         0         0         0         0         0         0
         0         0         0         0         0         0         0         0
         0         0         0         0         0         0         0         0
         0         0         0         0         0         0         0         0
         0         0         0         0         0         0         0         0
         0         0         0         0         0         0         0         0
         0         0         0         0         0         0         0         0
         0         0         0         0         0         0         0         0
         0         0         0         0         0         0         0         0
         0         0         0         0         0         0         0         0
         0         0         0         0         0         0         0         0
         0         0         0         0         0         0         0         0
         0         0         0         0         0         0         0         0
         0         0         0         0         0         0         0         0
         0         0         0         0         0         0         0         0
         0         0         0         0         0         0         0         0
         0         0         0         0         0         0         0         0
         0         0         0         0         0         0         0         0
         0         0         0         0         0         0         0         0
         0         0         0         0         0         0         0         0
         0         0         0         0         0         0         0         0
         0         0         0         0         0         0         0         0
         0         0         0         0         0         0         0         0
         0         0         0         0         0         0         0         0
         0         0         0         0         0         0         0         0
         0         0         0         0         0         0         0         0
         0         0         0         0         0         0         0         0
         0         0         0         0         0         0         0         0
         0         0         0         0         0         0         0         0
         0         0         0         0         0         0         0         0
         0         0         0         0         0         0         0         0
         0         0         0         0         0         0         0         0
         0         0         0         0         0         0         0         0
         0         0         0         0         0         0         0         0
         0         0         0         0         0         0         0         0
         0         0         0         0         0         0         0         0
         0         0         0         0         0         0         0         0
         0         0         0         0         0         0         0         0
         0         0         0         0         0         0         0         0
         0         0         0         0         0         0         0         0
         0         0         0         0         0         0         0         0
         0         0         0         0         0         0         0         0
         0         0         0         0         0         0         0         0
         0         0         0         0         0         0         0         0
         0         0         0         0         0         0         0         0
         0         0         0         0         0         0         0         0
         0         0         0         0         0         0         0         0
         0         0         0         0         0         0         0         0
         0         0         0         0         0         0         0         0
         0         0         0         0         0         0         0         0
         0         0         0         0         0         0         0         0
         0         0         0         0         0         0         0         0
         0         0         0         0         0         0         0         0
         0         0         0         0         0         0         0         0
         0         0         0         0         0         0         0         0
         0         0         0         0         0         0         0         0
         0         0         0         0         0         0         0         0
         0         0         0         0         0         0         0         0
         0         0         0         0         0         0         0         0
         0         0         0         0         0         0         0         0
         0         0         0         0         0         0         0         0
         0         0         0         0         0         0         0         0
         0         0         0         0         0         0         0         0
         0         0         0         0         0         0         0         0
         0         0         0         0         0         0         0         0
         0         0         0         0         0         0         0         0
         0         0         0         0         0         0         0         0
         0         0         0         0         0         0         0         0
         0         0         0         0         0         0         0         0
         0         0         0         0         0         0         0         0
         0         0         0         0         0         0         0         0
         0         0         0         0         0         0         0         0
         0         0         0         0         0         0         0         0
         0         0         0         0         0         0         0         0
         0         0         0         0         0         0         0         0
         0         0         0         0         0         0         0         0
         0         0         0         0         0         0         0         0
         0         0         0         0         0         0         0         0
         0         0         0         0         0         0         0         0
         0         0         0         0         0         0         0         0
         0         0         0         0         0         0         0         0
         0         0         0         0         0         0         0         0
         0         0         0         0         0         0         0         0
         0         0         0         0         0         0         0         0
         0         0         0         0         0         0         0         0
         0         0         0         0         0         0         0         0
         0         0         0         0         0         0         0         0
         0         0         0         0         0         0         0         0
         0         0         0         0         0         0         0         0
         0         0         0         0         0         0         0         0
         0         0         0         0         0         0         0         0
         0         0         0         0         0         0         0         0
         0         0         0         0         0         0         0         0
         0         0         0         0         0         0         0         0
         0         0         0         0         0         0         0         0
         0         0         0         0         0         0         0         0
         0         0         0         0         0         0         0         0
         0         0         0         0         0         0         0         0
         0         0         0         0         0         0         0         0
         0         0         0         0         0         0         0         0
         0         0         0         0         0         0         0         0
         0         0         0         0         0         0         0         0
         0         0         0         0         0         0         0         0
         0         0         0         0         0         0         0         0
         0         0         0         0         0         0         0         0
         0         0         0         0         0         0         0         0
         0         0         0         0         0         0         0         0
         0         0         0         0         0         0         0         0
         0         0         0         0         0         0         0         0
         0         0         0         0         0         0         0         0
         0         0         0         0         0         0         0         0
         0         0         0         0         0         0         0         0
         0         0         0         0         0         0         0         0
         0         0         0         0         0         0         0         0
         0         0         0         0         0         0         0         0
         0         0         0         0         0         0         0         0
         0         0         0         0         0         0         0         0
         0         0         0         0         0         0         0         0
         0         0         0         0         0         0         0         0
         0         0         0         0         0         0         0         0
         0         0         0         0         0         0         0         0
         0         0         0         0         0         0         0         0
         0         0         0         0         0         0         0         0
         0         0         0         0         0         0         0         0
         0         0         0         0         0         0         0         0
         0         0         0         0         0         0         0         0
         0         0         0         0         0         0         0         0
         0         0         0         0         0         0         0         0
         0         0         0         0         0         0         0         0
         0         0         0         0         0         0         0         0
         0         0         0         0         0         0         0         0
         0         0         0         0         0         0         0         0
         0         0         0         0         0         0         0         0
         0         0         0         0         0         0         0         0
         0         0         0         0         0         0         0         0
         0         0         0         0         0         0         0         0
         0         0         0         0         0         0         0         0
         0         0         0         0         0         0         0         0
         0         0         0         0         0         0         0         0
         0         0         0         0         0         0         0         0
         0         0         0         0         0         0         0         0
         0         0         0         0         0         0         0         0
         0         0         0         0         0         0         0         0
         0         0         0         0         0         0         0         0
         0         0         0         0         0         0         0         0
         0         0         0         0         0         0         0         0
         0         0         0         0         0         0         0         0
         0         0         0         0         0         0         0         0
         0         0         0         0         0         0         0         0
         0         0         0         0         0         0         0         0
         0         0         0         0         0         0         0         0
         0         0         0         0         0         0         0         0
         0         0         0         0         0         0         0         0
         0         0         0         0         0         0         0         0
         0         0         0         0         0         0         0         0
         0         0         0         0         0         0         0         0
         0         0         0         0         0         0         0         0
         0         0         0         0         0         0         0         0
         0         0         0         0         0         0         0         0
         0         0         0         0         0         0         0         0
         0         0         0         0         0         0         0         0
         0         0         0         0         0         0         0         0
         0         0         0         0         0         0         0         0
         0         0         0         0         0         0         0         0
         0         0         0         0         0         0         0         0
         0         0         0         0         0         0         0         0
         0         0         0         0         0         0         0         0
         0         0         0         0         0         0         0         0
         0         0         0         0         0         0         0         0
         0         0         0         0         0         0         0         0
         0         0         0         0         0         0         0         0
         0         0         0         0         0         0         0         0
         0         0         0         0         0         0         0         0
         0         0         0         0         0         0         0         0
         0         0         0         0         0         0         0         0
         0         0         0         0         0         0         0         0
         0         0         0         0         0         0         0         0
         0         0         0         0         0         0         0         0
         0         0         0         0         0         0         0         0
         0         0         0         0         0         0         0         0
         0         0         0         0         0         0         0         0
         0         0         0         0         0         0         0         0
         0         0         0         0         0         0         0         0
         0         0         0         0         0         0         0         0
         0         0         0         0         0         0         0         0
         0         0         0         0         0         0         0         0
         0         0         0         0
         0         0         0         0         0         0         0         0
         0         0         0         0         0         0         0         0
         0         0         0         0         0         0         0         0
         0         0         0         0         0         0         0         0
         0         0         0         0         0         0         0         0
         0         0         0         0         0         0         0         0
         0         0         0         0         0         0         0         0
         0         0         0         0         0         0         0         0
         0         0         0         0         0         0         0         0
         0         0         0         0         0         0         0         0
         0         0         0         0         0         0         0         0
         0         0         0         0         0         0         0         0
         0         0         0         0         0         0         0         0
         0         0         0         0         0         0         0         0
         0         0         0         0         0         0         0         0
         0         0         0         0         0         0         0         0
         0         0         0         0         0         0         0         0
         0         0         0         0         0         0         0         0
         0         0         0         0         0         0         0         0
         0         0         0         0         0         0         0         0
         0         0         0         0         0         0         0         0
         0         0         0         0         0         0         0         0
         0         0         0         0         0         0         0         0
         0         0         0         0         0         0         0         0
         0         0         0         0         0         0         0         0
         0         0         0         0         0         0         0         0
         0         0         0         0         0         0         0         0
         0         0         0         0         0         0         0         0
         0         0         0         0         0         0         0         0
         0         0         0         0         0         0         0         0
         0         0         0         0         0         0         0         0
         0         0         0         0         0         0         0         0
         0         0         0         0         0         0         0         0
         0         0         0         0         0         0         0         0
         0         0         0         0         0         0         0         0
         0         0         0         0         0         0         0         0
         0         0         0         0         0         0         0         0
         0         0         0         0         0         0         0         0
         0         0         0         0         0         0         0         0
         0         0         0         0         0         0         0         0
         0         0         0         0         0         0         0         0
         0         0         0         0         0         0         0         0
         0         0         0         0         0         0         0         0
         0         0         0         0         0         0         0         0
         0         0         0         0         0         0         0         0
         0         0         0         0         0         0         0         0
         0         0         0         0         0         0         0         0
         0         0         0         0         0         0         0         0
         0         0         0         0         0         0         0         0
         0         0         0         0         0         0         0         0
         0         0         0         0         0         0         0         0
         0         0         0         0         0         0         0         0
         0         0         0         0         0         0         0         0
         0         0         0         0         0         0         0         0
         0         0         0         0         0         0         0         0
         0         0         0         0         0         0         0         0
         0         0         0         0         0         0         0         0
         0         0         0         0         0         0         0         0
         0         0         0         0         0         0         0         0
         0         0         0         0         0         0         0         0
         0         0         0         0         0         0         0         0
         0         0         0         0         0         0         0         0
         0         0         0         0         0         0         0         0
         0         0         0         0         0         0         0         0
         0         0         0         0         0         0         0         0
         0         0         0         0         0         0         0         0
         0         0         0         0         0         0         0         0
         0         0         0         0         0         0         0         0
         0         0         0         0         0         0         0         0
         0         0         0         0         0         0         0         0
         0         0         0         0         0         0         0         0
         0         0         0         0         0         0         0         0
         0         0         0         0         0         0         0         0
         0         0         0         0         0         0         0         0
         0         0         0         0         0         0         0         0
         0         0         0         0         0         0         0         0
         0         0         0         0         0         0         0         0
         0         0         0         0         0         0         0         0
         0         0         0         0         0         0         0         0
         0         0         0         0         0         0         0         0
         0         0         0         0         0         0         0         0
         0         0         0         0         0         0         0         0
         0         0         0         0         0         0         0         0
         0         0         0         0         0         0         0         0
         0         0         0         0         0         0         0         0
         0         0         0         0         0         0         0         0
         0         0         0         0         0         0         0         0
         0         0         0         0         0         0         0         0
         0         0         0         0         0         0         0         0
         0         0         0         0         0         0         0         0
         0         0         0         0         0         0         0         0
         0         0         0         0         0         0         0         0
         0         0         0         0         0         0         0         0
         0         0         0         0         0         0         0         0
         0         0         0         0         0         0         0         0
         0         0         0         0         0         0         0         0
         0         0         0         0         0         0         0         0
         0         0         0         0         0         0         0         0
         0         0         0         0         0         0         0         0
         0         0         0         0         0         0         0         0
         0         0         0         0         0         0         0         0
         0         0         0         0         0         0         0         0
         0         0         0         0         0         0         0         0
         0         0         0         0         0         0         0         0
         0         0         0         0         0         0         0         0
         0         0         0         0         0         0         0         0
         0         0         0         0         0         0         0         0
         0         0         0         0         0         0         0         0
         0         0         0         0         0         0         0         0
         0         0         0         0         0         0         0         0
         0         0         0         0         0         0         0         0
         0         0         0         0         0         0         0         0
         0         0         0         0         0         0         0         0
         0         0         0         0         0         0         0         0
         0         0         0         0         0         0         0         0
         0         0         0         0         0         0         0         0
         0         0         0         0         0         0         0         0
         0         0         0         0         0         0         0         0
         0         0         0         0         0         0         0         0
         0         0         0         0         0         0         0         0
         0         0         0         0         0         0         0         0
         0         0         0         0         0         0         0         0
         0         0         0         0         0         0         0         0
         0         0         0         0         0         0         0         0
         0         0         0         0         0         0         0         0
         0         0         0         0         0         0         0         0
         0         0         0         0         0         0         0         0
         0         0         0         0         0         0         0         0
         0         0         0         0         0         0         0         0
         0         0         0         0         0         0         0         0
         0         0         0         0         0         0         0         0
         0         0         0         0         0         0         0         0
         0         0         0         0         0         0         0         0
         0         0         0         0         0         0         0         0
         0         0         0         0         0         0         0         0
         0         0         0         0         0         0         0         0
         0         0         0         0         0         0         0         0
         0         0         0         0         0         0         0         0
         0         0         0         0         0         0         0         0
         0         0         0         0         0         0         0         0
         0         0         0         0         0         0         0         0
         0         0         0         0         0         0         0         0
         0         0         0         0         0         0         0         0
         0         0         0         0         0         0         0         0
         0         0         0         0         0         0         0         0
         0         0         0         0         0         0         0         0
         0         0         0         0         0         0         0         0
         0         0         0         0         0         0         0         0
         0         0         0         0         0         0         0         0
         0         0         0         0         0         0         0         0
         0         0         0         0         0         0         0         0
         0         0         0         0         0         0         0         0
         0         0         0         0         0         0         0         0
         0         0         0         0         0         0         0         0
         0         0         0         0         0         0         0         0
         0         0         0         0         0         0         0         0
         0         0         0         0         0         0         0         0
         0         0         0         0         0         0         0         0
         0         0         0         0         0         0         0         0
         0         0         0         0         0         0         0         0
         0         0         0         0         0         0         0         0
         0         0         0         0         0         0         0         0
         0         0         0         0         0         0         0         0
         0         0         0         0         0         0         0         0
         0         0         0         0         0         0         0         0
         0         0         0         0         0         0         0         0
         0         0         0         0         0         0         0         0
         0         0         0         0         0         0         0         0
         0         0         0         0         0         0         0         0
         0         0         0         0         0         0         0         0
         0         0         0         0         0         0         0         0
         0         0         0         0         0         0         0         0
         0         0         0         0         0         0         0         0
         0         0         0         0         0         0         0         0
         0         0         0         0         0         0         0         0
         0         0         0         0         0         0         0         0
         0         0         0         0         0         0         0         0
         0         0         0         0         0         0         0         0
         0         0         0         0         0         0         0         0
         0         0         0         0         0         0         0         0
         0         0         0         0         0         0         0         0
         0         0         0         0         0         0         0         0
         0         0         0         0         0         0         0         0
         0         0         0         0         0         0         0         0
         0         0         0         0         0         0         0         0
         0         0         0         0         0         0         0         0
         0         0         0         0         0         0         0         0
         0         0         0         0         0         0         0         0
         0         0         0         0         0         0         0         0
         0         0         0         0         0         0         0         0
         0         0         0         0         0         0         0         0
         0         0         0         0         0         0         0         0
         0         0         0         0         0         0         0         0
         0         0         0         0         0         0         0         0
         0         0         0         0         0         0         0         0
         0         0         0         0         0         0         0         0
         0         0         0         0         0         0         0         0
         0         0         0         0         0         0         0         0
         0         0         0         0         0         0         0         0
         0         0         0         0         0         0         0         0
         0         0         0         0         0         0         0         0
         0         0         0         0         0         0         0         0
         0         0         0         0         0         0         0         0
         0         0         0         0         0         0         0         0
         0         0         0         0         0         0         0         0
         0         0         0         0         0         0         0         0
         0         0         0         0         0         0         0         0
         0         0         0         0         0         0         0         0
         0         0         0         0         0         0         0         0
         0         0         0         0         0         0         0         0
         0         0         0         0         0         0         0         0
         0         0         0         0         0         0         0         0
         0         0         0         0         0         0         0         0
         0         0         0         0         0         0         0         0
         0         0         0         0         0         0         0         0
         0         0         0         0         0         0         0         0
         0         0         0         0         0         0         0         0
         0         0         0         0         0         0         0         0
         0         0         0         0         0         0         0         0
         0         0         0         0         0         0         0         0
         0         0         0         0         0         0         0         0
         0         0         0         0         0         0         0         0
         0         0         0         0         0         0         0         0
         0         0         0         0         0         0         0         0
         0         0         0         0         0         0         0         0
         0         0         0         0         0         0         0         0
         0         0         0         0         0         0         0         0
         0         0         0         0         0         0         0         0
         0         0         0         0         0         0         0         0
         0         0         0         0         0         0         0         0
         0         0         0         0         0         0         0         0
         0         0         0         0         0         0         0         0
         0         0         0         0         0         0         0         0
         0         0         0         0         0         0         0         0
         0         0         0         0         0         0         0         0
         0         0         0         0         0         0         0         0
         0         0         0         0         0         0         0         0
         0         0         0         0         0         0         0         0
         0         0         0         0         0         0         0         0
         0         0         0         0         0         0         0         0
         0         0         0         0         0         0         0         0
         0         0         0         0         0         0         0         0
         0         0         0         0         0         0         0         0
         0         0         0         0         0         0         0         0
         0         0         0         0         0         0         0         0
         0         0         0         0         0         0         0         0
         0         0         0         0         0         0         0         0
         0         0         0         0         0         0         0         0
         0         0         0         0         0         0         0         0
         0         0         0         0         0         0         0         0
         0         0         0         0         0         0         0         0
         0         0         0         0         0         0         0         0
         0         0         0         0         0         0         0         0
         0         0         0         0         0         0         0         0
         0         0         0         0         0         0         0         0
         0         0         0         0         0         0         0         0
         0         0         0         0         0         0         0         0
         0         0         0         0         0         0         0         0
         0         0         0         0         0         0         0         0
         0         0         0         0         0         0         0         0
         0         0         0         0         0         0         0         0
         0         0         0         0         0         0         0         0
         0         0         0         0         0         0         0         0
         0         0         0         0         0         0         0         0
         0         0         0         0         0         0         0         0
         0         0         0         0         0         0         0         0
         0         0         0         0         0         0         0         0
         0         0         0         0         0         0         0         0
         0         0         0         0         0         0         0         0
         0         0         0         0         0         0         0         0
         0         0         0         0         0         0         0         0
         0         0         0         0         0         0         0         0
         0         0         0         0         0         0         0         0
         0         0         0         0         0         0         0         0
         0         0         0         0         0         0         0         0
         0         0         0         0         0         0         0         0
         0         0         0         0         0         0         0         0
         0         0         0         0         0         0         0         0
         0         0         0         0         0         0         0         0
         0         0         0         0         0         0         0         0
         0         0         0         0         0         0         0         0
         0         0         0         0         0         0         0         0
         0         0         0         0         0         0         0         0
         0         0         0         0         0         0         0         0
         0         0         0         0         0         0         0         0
         0         0         0         0         0         0         0         0
         0         0         0         0         0         0         0         0
         0         0         0         0         0         0         0         0
         0         0         0         0         0         0         0         0
         0         0         0         0         0         0         0         0
         0         0         0         0         0         0         0         0
         0         0         0         0         0         0         0         0
         0         0         0         0         0         0         0         0
         0         0         0         0         0         0         0         0
         0         0         0         0         0         0         0         0
         0         0         0         0         0         0         0         0
         0         0         0         0         0         0         0         0
         0         0         0         0         0         0         0         0
         0         0         0         0         0         0         0         0
         0         0         0         0         0         0         0         0
         0         0         0         0         0         0         0         0
         0         0         0         0         0         0         0         0
         0         0         0         0         0         0         0         0
         0         0         0         0         0         0         0         0
         0         0         0         0         0         0         0         0
         0         0         0         0         0         0         0         0
         0         0         0         0         0         0         0         0
         0         0         0         0         0         0         0         0
         0         0         0         0         0         0         0         0
         0         0         0         0         0         0         0         0
         0         0         0         0         0         0         0         0
         0         0         0         0         0         0         0         0
         0         0         0         0         0         0         0         0
         0         0         0         0         0         0         0         0
         0         0         0         0         0         0         0         0
         0         0         0         0         0         0         0         0
         0         0         0         0         0         0         0         0
         0         0         0         0         0         0         0         0
         0         0         0         0         0         0         0         0
         0         0         0         0         0         0         0         0
         0         0         0         0         0         0         0         0
         0         0         0         0         0         0         0         0
         0         0         0         0         0         0         0         0
         0         0         0         0         0         0         0         0
         0         0         0         0         0         0         0         0
         0         0         0         0         0         0         0         0
         0         0         0         0         0         0         0         0
         0         0         0         0         0         0         0         0
         0         0         0         0         0         0         0         0
         0         0         0         0         0         0         0         0
         0         0         0         0         0         0         0         0
         0         0         0         0         0         0         0         0
         0         0         0         0         0         0         0         0
         0         0         0         0         0         0         0         0
         0         0         0         0         0         0         0         0
         0         0         0         0         0         0         0         0
         0         0         0         0         0         0         0         0
         0         0         0         0         0         0         0         0
         0         0         0         0         0         0         0         0
         0         0         0         0         0         0         0         0
         0         0         0         0         0         0         0         0
         0         0         0         0         0         0         0         0
         0         0         0         0         0         0         0         0
         0         0         0         0         0         0         0         0
         0         0         0         0         0         0         0         0
         0         0         0         0         0         0         0         0
         0         0         0         0         0         0         0         0
         0         0         0         0         0         0         0         0
         0         0         0         0         0         0         0         0
         0         0         0         0         0         0         0         0
         0         0         0         0         0         0         0         0
         0         0         0         0         0         0         0         0
         0         0         0         0         0         0         0         0
         0         0         0         0         0         0         0         0
         0         0         0         0         0         0         0         0
         0         0         0         0         0         0         0         0
         0         0         0         0         0         0         0         0
         0         0         0         0         0         0         0         0
         0         0         0         0         0         0         0         0
         0         0         0         0         0         0         0         0
         0         0         0         0         0         0         0         0
         0         0         0         0         0         0         0         0
         0         0         0         0         0         0         0         0
         0         0         0         0         0         0         0         0
         0         0         0         0         0         0         0         0
         0         0         0         0         0         0         0         0
         0         0         0         0         0         0         0         0
         0         0         0         0         0         0         0         0
         0         0         0         0         0         0         0         0
         0         0         0         0         0         0         0         0
         0         0         0         0         0         0         0         0
         0         0         0         0         0         0         0         0
         0         0         0         0         0         0         0         0
         0         0         0         0         0         0         0         0
         0         0         0         0         0         0         0         0
         0         0         0         0         0         0         0         0
         0         0         0         0         0         0         0         0
         0         0         0         0         0         0         0         0
         0         0         0         0         0         0         0         0
         0         0         0         0         0         0         0         0
         0         0         0         0         0         0         0         0
         0         0         0         0         0         0         0         0
         0         0         0         0         0         0         0         0
         0         0         0         0         0         0         0         0
         0         0         0         0         0         0         0         0
         0         0         0         0         0         0         0         0
         0         0         0         0         0         0         0         0
         0         0         0         0         0         0         0         0
         0         0         0         0         0         0         0         0
         0         0         0         0         0         0         0         0
         0         0         0         0         0         0         0         0
         0         0         0         0         0         0         0         0
         0         0         0         0         0         0         0         0
         0         0         0         0         0         0         0         0
         0         0         0         0         0         0         0         0
         0         0         0         0         0         0         0         0
         0         0         0         0         0         0         0         0
         0         0         0         0         0         0         0         0
         0         0         0         0         0         0         0         0
         0         0         0         0         0         0         0         0
         0         0         0         0         0         0         0         0
         0         0         0         0         0         0         0         0
         0         0         0         0         0         0         0         0
         0         0         0         0         0         0         0         0
         0         0         0         0         0         0         0         0
         0         0         0         0         0         0         0         0
         0         0         0         0         0         0         0         0
         0         0         0         0         0         0         0         0
         0         0         0         0         0         0         0         0
         0         0         0         0         0         0         0         0
         0         0         0         0         0         0         0         0
         0         0         0         0         0         0         0         0
         0         0         0         0         0         0         0         0
         0         0         0         0         0         0         0         0
         0         0         0         0         0         0         0         0
         0         0         0         0         0         0         0         0
         0         0         0         0         0         0         0         0
         0         0         0         0         0         0         0         0
         0         0         0         0         0         0         0         0
         0         0         0         0         0         0         0         0
         0         0         0         0         0         0         0         0
         0         0         0         0         0         0         0         0
         0         0         0         0         0         0         0         0
         0         0         0         0         0         0         0         0
         0         0         0         0         0         0         0         0
         0         0         0         0         0         0         0         0
         0         0         0         0         0         0         0         0
         0         0         0         0         0         0         0         0
         0         0         0         0         0         0         0         0
         0         0         0         0         0         0         0         0
         0         0         0         0         0         0         0         0
         0         0         0         0         0         0         0         0
         0         0         0         0         0         0         0         0
         0         0         0         0         0         0         0         0
         0         0         0         0         0         0         0         0
         0         0         0         0         0         0         0         0
         0         0         0         0         0         0         0         0
         0         0         0         0         0         0         0         0
         0         0         0         0         0         0         0         0
         0         0         0         0         0         0         0         0
         0         0         0         0         0         0         0         0
         0         0         0         0         0         0         0         0
         0         0         0         0         0         0         0         0
         0         0         0         0         0         0         0         0
         0         0         0         0         0         0         0         0
         0         0         0         0         0         0         0         0
         0         0         0         0         0         0         0         0
         0         0         0         0         0         0         0         0
         0         0         0         0         0         0         0         0
         0         0         0         0         0         0         0         0
         0         0         0         0         0         0         0         0
         0         0         0         0         0         0         0         0
         0         0         0         0         0         0         0         0
         0         0         0         0         0         0         0         0
         0         0         0         0         0         0         0         0
         0         0         0         0         0         0         0         0
         0         0         0         0         0         0         0         0
         0         0         0         0         0         0         0         0
         0         0         0         0         0         0         0         0
         0         0         0         0         0         0         0         0
         0         0         0         0         0         0         0         0
         0         0         0         0         0         0         0         0
         0         0         0         0         0         0         0         0
         0         0         0         0         0         0         0         0
         0         0         0         0         0         0         0         0
         0         0         0         0         0         0         0         0
         0         0         0         0         0         0         0         0
         0         0         0         0         0         0         0         0
         0         0         0         0         0         0         0         0
         0         0         0         0         0         0         0         0
         0         0         0         0         0         0         0         0
         0         0         0         0         0         0         0         0
         0         0         0         0         0         0         0         0
         0         0         0         0         0         0         0         0
         0         0         0         0         0         0         0         0
         0         0         0         0         0         0         0         0
         0         0         0         0         0         0         0         0
         0         0         0         0         0         0         0         0
         0         0         0         0         0         0         0         0
         0         0         0         0         0         0         0         0
         0         0         0         0         0         0         0         0
         0         0         0         0         0         0         0         0
         0         0         0         0         0         0         0         0
         0         0         0         0         0         0         0         0
         0         0         0         0         0         0         0         0
         0         0         0         0         0         0         0         0
         0         0         0         0         0         0         0         0
         0         0         0         0         0         0         0         0
         0         0         0         0         0         0         0         0
         0         0         0         0         0         0         0         0
         0         0         0         0         0         0         0         0
         0         0         0         0         0         0         0         0
         0         0         0         0         0         0         0         0
         0         0         0         0         0         0         0         0
         0         0         0         0         0         0         0         0
         0         0         0         0         0         0         0         0
         0         0         0         0         0         0         0         0
         0         0         0         0         0         0         0         0
         0         0         0         0         0         0         0         0
         0         0         0         0         0         0         0         0
         0         0         0         0         0         0         0         0
         0         0         0         0         0         0         0         0
         0         0         0         0         0         0         0         0
         0         0         0         0         0         0         0         0
         0         0         0         0         0         0         0         0
         0         0         0         0         0         0         0         0
         0         0         0         0         0         0         0         0
         0         0         0         0         0         0         0         0
         0         0         0         0         0         0         0         0
         0         0         0         0         0         0         0         0
         0         0         0         0         0         0         0         0
         0         0         0         0         0         0         0         0
         0         0         0         0         0         0         0         0
         0         0         0         0         0         0         0         0
         0         0         0         0         0         0         0         0
         0         0         0         0         0         0         0         0
         0         0         0         0         0         0         0         0
         0         0         0         0         0         0         0         0
         0         0         0         0         0         0         0         0
         0         0         0         0         0         0         0         0
         0         0         0         0         0         0         0         0
         0         0         0         0         0         0         0         0
         0         0         0         0         0         0         0         0
         0         0         0         0         0         0         0         0
         0         0         0         0         0         0         0         0
         0         0         0         0         0         0         0         0
         0         0         0         0         0         0         0         0
         0         0         0         0         0         0         0         0
         0         0         0         0         0         0         0         0
         0         0         0         0         0         0         0         0
         0         0         0         0         0         0         0         0
         0         0         0         0         0         0         0         0
         0         0         0         0         0         0         0         0
         0         0         0         0         0         0         0         0
         0         0         0         0         0         0         0         0
         0         0         0         0         0         0         0         0
         0         0         0         0         0         0         0         0
         0         0         0         0         0         0         0         0
         0         0         0         0         0         0         0         0
         0         0         0         0         0         0         0         0
         0         0         0         0         0         0         0         0
         0         0         0         0         0         0         0         0
         0         0         0         0         0         0         0         0
         0         0         0         0         0         0         0         0
         0         0         0         0         0         0         0         0
         0         0         0         0         0         0         0         0
         0         0         0         0         0         0         0         0
         0         0         0         0         0         0         0         0
         0         0         0         0         0         0         0         0
         0         0         0         0         0         0         0         0
         0         0         0         0         0         0         0         0
         0         0         0         0         0         0         0         0
         0         0         0         0         0         0         0         0
         0         0         0         0         0         0         0         0
         0         0         0         0         0         0         0         0
         0         0         0         0         0         0         0         0
         0         0         0         0         0         0         0         0
         0         0         0         0         0         0         0         0
         0         0         0         0         0         0         0         0
         0         0         0         0         0         0         0         0
         0         0         0         0         0         0         0         0
         0         0         0         0         0         0         0         0
         0         0         0         0         0         0         0         0
         0         0         0         0         0         0         0         0
         0         0         0         0         0         0         0         0
         0         0         0         0         0         0         0         0
         0         0         0         0         0         0         0         0
         0         0         0         0         0         0         0         0
         0         0         0         0         0         0         0         0
         0         0         0         0         0         0         0         0
         0         0         0         0         0         0         0         0
         0         0         0         0         0         0         0         0
         0         0         0         0         0         0         0         0
         0         0         0         0         0         0         0         0
         0         0         0         0         0         0         0         0
         0         0         0         0         0         0         0         0
         0         0         0         0         0         0         0         0
         0         0         0         0         0         0         0         0
         0         0         0         0         0         0         0         0
         0         0         0         0         0         0         0         0
         0         0         0         0         0         0         0         0
         0         0         0         0         0         0         0         0
         0         0         0         0         0         0         0         0
         0         0         0         0         0         0         0         0
         0         0         0         0         0         0         0         0
         0         0         0         0         0         0         0         0
         0         0         0         0         0         0         0         0
         0         0         0         0         0         0         0         0
         0         0         0         0         0         0         0         0
         0         0         0         0         0         0         0         0
         0         0         0         0         0         0         0         0
         0         0         0         0         0         0         0         0
         0         0         0         0         0         0         0         0
         0         0         0         0         0         0         0         0
         0         0         0         0         0         0         0         0
         0         0         0         0         0         0         0         0
         0         0         0         0         0         0         0         0
         0         0         0         0         0         0         0         0
         0         0         0         0         0         0         0         0
         0         0         0         0         0         0         0         0
         0         0         0         0         0         0         0         0
         0         0         0         0         0         0         0         0
         0         0         0         0         0         0         0         0
         0         0         0         0         0         0         0         0
         0         0         0         0         0         0         0         0
         0         0         0         0         0         0         0         0
         0         0         0         0         0         0         0         0
         0         0         0         0         0         0         0         0
         0         0         0         0         0         0         0         0
         0         0         0         0         0         0         0         0
         0         0         0         0         0         0         0         0
         0         0         0         0         0         0         0         0
         0         0         0         0         0         0         0         0
         0         0         0         0         0         0         0         0
         0         0         0         0         0         0         0         0
         0         0         0         0         0         0         0         0
         0         0         0         0         0         0         0         0
         0         0         0         0         0         0         0         0
         0         0         0         0         0         0         0         0
         0         0         0         0         0         0         0         0
         0         0         0         0         0         0         0         0
         0         0         0         0         0         0         0         0
         0         0         0         0         0         0         0         0
         0         0         0         0         0         0         0         0
         0         0         0         0         0         0         0         0
         0         0         0         0         0         0         0         0
         0         0         0         0         0         0         0         0
         0         0         0         0         0         0         0         0
         0         0         0         0         0         0         0         0
         0         0         0         0         0         0         0         0
         0         0         0         0         0         0         0         0
         0         0         0         0         0         0         0         0
         0         0         0         0         0         0         0         0
         0         0         0         0         0         0         0         0
         0         0         0         0         0         0         0         0
         0         0         0         0         0         0         0         0
         0         0         0         0         0         0         0         0
         0         0         0         0         0         0         0         0
         0         0         0         0         0         0         0         0
         0         0         0         0         0         0         0         0
         0         0         0         0         0         0         0         0
         0         0         0         0         0         0         0         0
         0         0         0         0         0         0         0         0
         0         0         0         0         0         0         0         0
         0         0         0         0         0         0         0         0
         0         0         0         0         0         0         0         0
         0         0         0         0         0         0         0         0
         0         0         0         0         0         0         0         0
         0         0         0         0         0         0         0         0
         0         0         0         0         0         0         0         0
         0         0         0         0         0         0         0         0
         0         0         0         0         0         0         0         0
         0         0         0         0         0         0         0         0
         0         0         0         0         0         0         0         0
         0         0         0         0         0         0         0         0
         0         0         0         0         0         0         0         0
         0         0         0         0         0         0         0         0
         0         0         0         0         0         0         0         0
         0         0         0         0         0         0         0         0
         0         0         0         0         0         0         0         0
         0         0         0         0         0         0         0         0
         0         0         0         0         0         0         0         0
         0         0         0         0         0         0         0         0
         0         0         0         0         0         0         0         0
         0         0         0         0         0         0         0         0
         0         0         0         0         0         0         0         0
         0         0         0         0         0         0         0         0
         0         0         0         0         0         0         0         0
         0         0         0         0         0         0         0         0
         0         0         0         0         0         0         0         0
         0         0         0         0         0         0         0         0
         0         0         0         0         0         0         0         0
         0         0         0         0         0         0         0         0
         0         0         0         0         0         0         0         0
         0         0         0         0         0         0         0         0
         0         0         0         0         0         0         0         0
         0         0         0         0         0         0         0         0
         0         0         0         0         0         0         0         0
         0         0         0         0         0         0         0         0
         0         0         0         0         0         0         0         0
         0         0         0         0         0         0         0         0
         0         0         0         0         0         0         0         0
         0         0         0         0         0         0         0         0
         0         0         0         0         0         0         0         0
         0         0         0         0         0         0         0         0
         0         0         0         0         0         0         0         0
         0         0         0         0         0         0         0         0
         0         0         0         0         0         0         0         0
         0         0         0         0         0         0         0         0
         0         0         0         0         0         0         0         0
         0         0         0         0         0         0         0         0
         0         0         0         0         0         0         0         0
         0         0         0         0         0         0         0         0
         0         0         0         0         0         0         0         0
         0         0         0         0         0         0         0         0
         0         0         0         0         0         0         0         0
         0         0         0         0         0         0         0         0
         0         0         0         0         0         0         0         0
         0         0         0         0         0         0         0         0
         0         0         0         0         0         0         0         0
         0         0         0         0         0         0         0         0
         0         0         0         0         0         0         0         0
         0         0         0         0         0         0         0         0
         0         0         0         0         0         0         0         0
         0         0         0         0         0         0         0         0
         0         0         0         0         0         0         0         0
         0         0         0         0         0         0         0         0
         0         0         0         0         0         0         0         0
         0         0         0         0         0         0         0         0
         0         0         0         0         0         0         0         0
         0         0         0         0         0         0         0         0
         0         0         0         0         0         0         0         0
         0         0         0         0         0         0         0         0
         0         0         0         0         0         0         0         0
         0         0         0         0         0         0         0         0
         0         0         0         0         0         0         0         0
         0         0         0         0         0         0         0         0
         0         0         0         0         0         0         0         0
         0         0         0         0         0         0         0         0
         0         0         0         0         0         0         0         0
         0         0         0         0         0         0         0         0
         0         0         0         0         0         0         0         0
         0         0         0         0         0         0         0         0
         0         0         0         0         0         0         0         0
         0         0         0         0         0         0         0         0
         0         0         0         0         0         0         0         0
         0         0         0         0         0         0         0         0
         0         0         0         0         0         0         0         0
         0         0         0         0         0         0         0         0
         0         0         0         0         0         0         0         0
         0         0         0         0         0         0         0         0
         0         0         0         0         0         0         0         0
         0         0         0         0         0         0         0         0
         0         0         0         0         0         0         0         0
         0         0         0         0         0         0         0         0
         0         0         0         0         0         0         0         0
         0         0         0         0         0         0         0         0
         0         0         0         0         0         0         0         0
         0         0         0         0         0         0         0         0
         0         0         0         0         0         0         0         0
         0         0         0         0         0         0         0         0
         0         0         0         0         0         0         0         0
         0         0         0         0         0         0         0         0
         0         0         0         0         0         0         0         0
         0         0         0         0         0         0         0         0
         0         0         0         0         0         0         0         0
         0         0         0         0         0         0         0         0
         0         0         0         0         0         0         0         0
         0         0         0         0         0         0         0         0
         0         0         0         0         0         0         0         0
         0         0         0         0         0         0         0         0
         0         0         0         0         0         0         0         0
         0         0         0         0         0         0         0         0
         0         0         0         0         0         0         0         0
         0         0         0         0         0         0         0         0
         0         0         0         0         0         0         0         0
         0         0         0         0         0         0         0         0
         0         0         0         0         0         0         0         0
         0         0         0         0         0         0         0         0
         0         0         0         0         0         0         0         0
         0         0         0         0         0         0         0         0
         0         0         0         0         0         0         0         0
         0         0         0         0         0         0         0         0
         0         0         0         0         0         0         0         0
         0         0         0         0         0         0         0         0
         0         0         0         0         0         0         0         0
         0         0         0         0         0         0         0         0
         0         0         0         0         0         0         0         0
         0         0         0         0         0         0         0         0
         0         0         0         0         0         0         0         0
         0         0         0         0         0         0         0         0
         0         0         0         0         0         0         0         0
         0         0         0         0         0         0         0         0
         0         0         0         0         0         0         0         0
         0         0         0         0         0         0         0         0
         0         0         0         0         0         0         0         0
         0         0         0         0         0         0         0         0
         0         0         0         0         0         0         0         0
         0         0         0         0         0         0         0         0
         0         0         0         0         0         0         0         0
         0         0         0         0         0         0         0         0
         0         0         0         0         0         0         0         0
         0         0         0         0         0         0         0         0
         0         0         0         0         0         0         0         0
         0         0         0         0         0         0         0         0
         0         0         0         0         0         0         0         0
         0         0         0         0         0         0         0         0
         0         0         0         0         0         0         0         0
         0         0         0         0         0         0         0         0
         0         0         0         0         0         0         0         0
         0         0         0         0         0         0         0         0
         0         0         0         0         0         0         0         0
         0         0         0         0         0         0         0         0
         0         0         0         0         0         0         0         0
         0         0         0         0         0         0         0         0
         0         0         0         0         0         0         0         0
         0         0         0         0         0         0         0         0
         0         0         0         0         0         0         0         0
         0         0         0         0         0         0         0         0
         0         0         0         0         0         0         0         0
         0         0         0         0         0         0         0         0
         0         0         0         0         0         0         0         0
         0         0         0         0         0         0         0         0
         0         0         0         0         0         0         0         0
         0         0         0         0         0         0         0         0
         0         0         0         0         0         0         0         0
         0         0         0         0         0         0         0         0
         0         0         0         0         0         0         0         0
         0         0         0         0         0         0         0         0
         0         0         0         0         0         0         0         0
         0         0         0         0         0         0         0         0
         0         0         0         0         0         0         0         0
         0         0         0         0         0         0         0         0
         0         0         0         0         0         0         0         0
         0         0         0         0         0         0         0         0
         0         0         0         0         0         0         0         0
         0         0         0         0         0         0         0         0
         0         0         0         0         0         0         0         0
         0         0         0         0         0         0         0         0
         0         0         0         0         0         0         0         0
         0         0         0         0         0         0         0         0
         0         0         0         0         0         0         0         0
         0         0         0         0         0         0         0         0
         0         0         0         0         0         0         0         0
         0         0         0         0         0         0         0         0
         0         0         0         0         0         0         0         0
         0         0         0         0         0         0         0         0
         0         0         0         0         0         0         0         0
         0         0         0         0         0         0         0         0
         0         0         0         0         0         0         0         0
         0         0         0         0         0         0         0         0
         0         0         0         0         0         0         0         0
         0         0         0         0         0         0         0         0
         0         0         0         0         0         0         0         0
         0         0         0         0         0         0         0         0
         0         0         0         0         0         0         0         0
         0         0         0         0         0         0         0         0
         0         0         0         0         0         0         0         0
         0         0         0         0         0         0         0         0
         0         0         0         0         0         0         0         0
         0         0         0         0         0         0         0         0
         0         0         0         0         0         0         0         0
         0         0         0         0         0         0         0         0
         0         0         0         0         0         0         0         0
         0         0         0         0         0         0         0         0
         0         0         0         0         0         0         0         0
         0         0         0         0         0         0         0         0
         0         0         0         0         0         0         0         0
         0         0         0         0         0         0         0         0
         0         0         0         0         0         0         0         0
         0         0         0         0         0         0         0         0
         0         0         0         0         0         0         0         0
         0         0         0         0         0         0         0         0
         0         0         0         0         0         0         0         0
         0         0         0         0         0         0         0         0
         0         0         0         0         0         0         0         0
         0         0         0         0         0         0         0         0
         0         0         0         0         0         0         0         0
         0         0         0         0         0         0         0         0
         0         0         0         0         0         0         0         0
         0         0         0         0         0         0         0         0
         0         0         0         0         0         0         0         0
         0         0         0         0         0         0         0         0
         0         0         0         0         0         0         0         0
         0         0         0         0         0         0         0         0
         0         0         0         0         0         0         0         0
         0         0         0         0         0         0         0         0
         0         0         0         0         0         0         0         0
         0         0         0         0         0         0         0         0
         0         0         0         0         0         0         0         0
         0         0         0         0         0         0         0         0
         0         0         0         0         0         0         0         0
         0         0         0         0         0         0         0         0
         0         0         0         0         0         0         0         0
         0         0         0         0         0         0         0         0
         0         0         0         0         0         0         0         0
         0         0         0         0         0         0         0         0
         0         0         0         0         0         0         0         0
         0         0         0         0         0         0         0         0
         0         0         0         0         0         0         0         0
         0         0         0         0         0         0         0         0
         0         0         0         0         0         0         0         0
         0         0         0         0         0         0         0         0
         0         0         0         0         0         0         0         0
         0         0         0         0         0         0         0         0
         0         0         0         0         0         0         0         0
         0         0         0         0         0         0         0         0
         0         0         0         0         0         0         0         0
         0         0         0         0         0         0         0         0
         0         0         0         0         0         0         0         0
         0         0         0         0         0         0         0         0
         0         0         0         0         0         0         0         0
         0         0         0         0         0         0         0         0
         0         0         0         0         0         0         0         0
         0         0         0         0         0         0         0         0
         0         0         0         0         0         0         0         0
         0         0         0         0         0         0         0         0
         0         0         0         0         0         0         0         0
         0         0         0         0         0         0         0         0
         0         0         0         0         0         0         0         0
         0         0         0         0         0         0         0         0
         0         0         0         0         0         0         0         0
         0         0         0         0         0         0         0         0
         0         0         0         0         0         0         0         0
         0         0         0         0         0         0         0         0
         0         0         0         0         0         0         0         0
         0         0         0         0         0         0         0         0
         0         0         0         0         0         0         0         0
         0         0         0         0         0         0         0         0
         0         0         0         0         0         0         0         0
         0         0         0         0         0         0         0         0
         0         0         0         0         0         0         0         0
         0         0         0         0         0         0         0         0
         0         0         0         0         0         0         0         0
         0         0         0         0         0         0         0         0
         0         0         0         0         0         0         0         0
         0         0         0         0         0         0         0         0
         0         0         0         0         0         0         0         0
         0         0         0         0         0         0         0         0
         0         0         0         0         0         0         0         0
         0         0         0         0         0         0         0         0
         0         0         0         0         0         0         0         0
         0         0         0         0         0         0         0         0
         0         0         0         0         0         0         0         0
         0         0         0         0         0         0         0         0
         0         0         0         0         0         0         0         0
         0         0         0         0         0         0         0         0
         0         0         0         0         0         0         0         0
         0         0         0         0         0         0         0         0
         0         0         0         0         0         0         0         0
         0         0         0         0         0         0         0         0
         0         0         0         0         0         0         0         0
         0         0         0         0         0         0         0         0
         0         0         0         0         0         0         0         0
         0         0         0         0         0         0         0         0
         0         0         0         0         0         0         0         0
         0         0         0         0         0         0         0         0
         0         0         0         0         0         0         0         0
         0         0         0         0         0         0         0         0
         0         0         0         0         0         0         0         0
         0         0         0         0         0         0         0         0
         0         0         0         0         0         0         0         0
         0         0         0         0         0         0         0         0
         0         0         0         0         0         0         0         0
         0         0         0         0         0         0         0         0
         0         0         0         0         0         0         0         0
         0         0         0         0         0         0         0         0
         0         0         0         0         0         0         0         0
         0         0         0         0         0         0         0         0
         0         0         0         0         0         0         0         0
         0         0         0         0         0         0         0         0
         0         0         0         0         0         0         0         0
         0         0         0         0         0         0         0         0
         0         0         0         0         0         0         0         0
         0         0         0         0         0         0         0         0
         0         0         0         0         0         0         0         0
         0         0         0         0         0         0         0         0
         0         0         0         0         0         0         0         0
         0         0         0         0         0         0         0         0
         0         0         0         0         0         0         0         0
         0         0         0         0         0         0         0         0
         0         0         0         0         0         0         0         0
         0         0         0         0         0         0         0         0
         0         0         0         0         0         0         0         0
         0         0         0         0         0         0         0         0
         0         0         0         0         0         0         0         0
         0         0         0         0         0         0         0         0
         0         0         0         0         0         0         0         0
         0         0         0         0         0         0         0         0
         0         0         0         0         0         0         0         0
         0         0         0         0         0         0         0         0
         0         0         0         0         0         0         0         0
         0         0         0         0         0         0         0         0
         0         0         0         0         0         0         0         0
         0         0         0         0         0         0         0         0
         0         0         0         0         0         0         0         0
         0         0         0         0         0         0         0         0
         0         0         0         0         0         0         0         0
         0         0         0         0         0         0         0         0
         0         0         0         0         0         0         0         0
         0         0         0         0         0         0         0         0
         0         0         0         0         0         0         0         0
         0         0         0         0         0         0         0         0
         0         0         0         0         0         0         0         0
         0         0         0         0         0         0         0         0
         0         0         0         0         0         0         0         0
         0         0         0         0         0         0         0         0
         0         0         0         0         0         0         0         0
         0         0         0         0         0         0         0         0
         0         0         0         0         0         0         0         0
         0         0         0         0         0         0         0         0
         0         0         0         0         0         0         0         0
         0         0         0         0         0         0         0         0
         0         0         0         0         0         0         0         0
         0         0         0         0         0         0         0         0
         0         0         0         0         0         0         0         0
         0         0         0         0         0         0         0         0
         0         0         0         0         0         0         0         0
         0         0         0         0         0         0         0         0
         0         0         0         0         0         0         0         0
         0         0         0         0         0         0         0         0
         0         0         0         0         0         0         0         0
         0         0         0         0         0         0         0         0
         0         0         0         0         0         0         0         0
         0         0         0         0         0         0         0         0
         0         0         0         0         0         0         0         0
         0         0         0         0         0         0         0         0
         0         0         0         0         0         0         0         0
         0         0         0         0         0         0         0         0
         0         0         0         0         0         0         0         0
         0         0         0         0         0         0         0         0
         0         0         0         0         0         0         0         0
         0         0         0         0         0         0         0         0
         0         0         0         0         0         0         0         0
         0         0         0         0         0         0         0         0
         0         0         0         0         0         0         0         0
         0         0         0         0         0         0         0         0
         0         0         0         0         0         0         0         0
         0         0         0         0         0         0         0         0
         0         0         0         0         0         0         0         0
         0         0         0         0         0         0         0         0
         0         0         0         0         0         0         0         0
         0         0         0         0         0         0         0         0
         0         0         0         0         0         0         0         0
         0         0         0         0         0         0         0         0
         0         0         0         0         0         0         0         0
         0         0         0         0         0         0         0         0
         0         0         0         0         0         0         0         0
         0         0         0         0         0         0         0         0
         0         0         0         0         0         0         0         0
         0         0         0         0         0         0         0         0
         0         0         0         0         0         0         0         0
         0         0         0         0         0         0         0         0
         0         0         0         0         0         0         0         0
         0         0         0         0         0         0         0         0
         0         0         0         0         0         0         0         0
         0         0         0         0         0         0         0         0
         0         0         0         0         0         0         0         0
         0         0         0         0         0         0         0         0
         0         0         0         0         0         0         0         0
         0         0         0         0         0         0         0         0
         0         0         0         0         0         0         0         0
         0         0         0         0         0         0         0         0
         0         0         0         0         0         0         0         0
         0         0         0         0         0         0         0         0
         0         0         0         0         0         0         0         0
         0         0         0         0         0         0         0         0
         0         0         0         0         0         0         0         0
         0         0         0         0         0         0         0         0
         0         0         0         0         0         0         0         0
         0         0         0         0         0         0         0         0
         0         0         0         0         0         0         0         0
         0         0         0         0         0         0         0         0
         0         0         0         0         0         0         0         0
         0         0         0         0         0         0         0         0
         0         0         0         0         0         0         0         0
         0         0         0         0         0         0         0         0
         0         0         0         0         0         0         0         0
         0         0         0         0         0         0         0         0
         0         0         0         0         0         0         0         0
         0         0         0         0         0         0         0         0
         0         0         0         0         0         0         0         0
         0         0         0         0         0         0         0         0
         0         0         0         0         0         0         0         0
         0         0         0         0         0         0         0         0
         0         0         0         0         0         0         0         0
         0         0         0         0         0         0         0         0
         0         0         0         0         0         0         0         0
         0         0         0         0         0         0         0         0
         0         0         0         0         0         0         0         0
         0         0         0         0         0         0         0         0
         0         0         0         0         0         0         0         0
         0         0         0         0         0         0         0         0
         0         0         0         0         0         0         0         0
         0         0         0         0         0         0         0         0
         0         0         0         0         0         0         0         0
         0         0         0         0         0         0         0         0
         0         0         0         0         0         0         0         0
         0         0         0         0         0         0         0         0
         0         0         0         0         0         0         0         0
         0         0         0         0         0         0         0         0
         0         0         0         0         0         0         0         0
         0         0         0         0         0         0         0         0
         0         0         0         0         0         0         0         0
         0         0         0         0         0         0         0         0
         0         0         0         0         0         0         0         0
         0         0         0         0         0         0         0         0
         0         0         0         0         0         0         0         0
         0         0         0         0         0         0         0         0
         0         0         0         0         0         0         0         0
         0         0         0         0         0         0         0         0
         0         0         0         0         0         0         0         0
         0         0         0         0         0         0         0         0
         0         0         0         0         0         0         0         0
         0         0         0         0         0         0         0         0
         0         0         0         0         0         0         0         0
         0         0         0         0         0         0         0         0
         0         0         0         0         0         0         0         0
         0         0         0         0         0         0         0         0
         0         0         0         0         0         0         0         0
         0         0         0         0         0         0         0         0
         0         0         0         0         0         0         0         0
         0         0         0         0         0         0         0         0
         0         0         0         0         0         0         0         0
         0         0         0         0         0         0         0         0
         0         0         0         0         0         0         0         0
         0         0         0         0         0         0         0         0
         0         0         0         0         0         0         0         0
         0         0         0         0         0         0         0         0
         0         0         0         0         0         0         0         0
         0         0         0         0         0         0         0         0
         0         0         0         0         0         0         0         0
         0         0         0         0         0         0         0         0
         0         0         0         0         0         0         0         0
         0         0         0         0         0         0         0         0
         0         0         0         0         0         0         0         0
         0         0         0         0         0         0         0         0
         0         0         0         0         0         0         0         0
         0         0         0         0         0         0         0         0
         0         0         0         0         0         0         0         0
         0         0         0         0         0         0         0         0
         0         0         0         0         0         0         0         0
         0         0         0         0         0         0         0         0
         0         0         0         0         0         0         0         0
         0         0         0         0         0         0         0         0
         0         0         0         0         0         0         0         0
         0         0         0         0         0         0         0         0
         0         0         0         0         0         0         0         0
         0         0         0         0         0         0         0         0
         0         0         0         0         0         0         0         0
         0         0         0         0         0         0         0         0
         0         0         0         0         0         0         0         0
         0         0         0         0         0         0         0         0
         0         0         0         0         0         0         0         0
         0         0         0         0         0         0         0         0
         0         0         0         0         0         0         0         0
         0         0         0         0         0         0         0         0
         0         0         0         0         0         0         0         0
         0         0         0         0         0         0         0         0
         0         0         0         0         0         0         0         0
         0         0         0         0         0         0         0         0
         0         0         0         0         0         0         0         0
         0         0         0         0         0         0         0         0
         0         0         0         0         0         0         0         0
         0         0         0         0         0         0         0         0
         0         0         0         0         0         0         0         0
         0         0         0         0         0         0         0         0
         0         0         0         0         0         0         0         0
         0         0         0         0         0         0         0         0
         0         0         0         0         0         0         0         0
         0         0         0         0         0         0         0         0
         0         0         0         0         0         0         0         0
         0         0         0         0         0         0         0         0
         0         0         0         0         0         0         0         0
         0         0         0         0         0         0         0         0
         0         0         0         0         0         0         0         0
         0         0         0         0         0         0         0         0
         0         0         0         0         0         0         0         0
         0         0         0         0         0         0         0         0
         0         0         0         0         0         0         0         0
         0         0         0         0         0         0         0         0
         0         0         0         0         0         0         0         0
         0         0         0         0         0         0         0         0
         0         0         0         0         0         0         0         0
         0         0         0         0         0         0         0         0
         0         0         0         0         0         0         0         0
         0         0         0         0         0         0         0         0
         0         0         0         0         0         0         0         0
         0         0         0         0         0         0         0         0
         0         0         0         0         0         0         0         0
         0         0         0         0         0         0         0         0
         0         0         0         0         0         0         0         0
         0         0         0         0         0         0         0         0
         0         0         0         0         0         0         0         0
         0         0         0         0         0         0         0         0
         0         0         0         0         0         0         0         0
         0         0         0         0         0         0         0         0
         0         0         0         0         0         0         0         0
         0         0         0         0         0         0         0         0
         0         0         0         0         0         0         0         0
         0         0         0         0         0         0         0         0
         0         0         0         0         0         0         0         0
         0         0         0         0         0         0         0         0
         0         0         0         0         0         0         0         0
         0         0         0         0         0         0         0         0
         0         0         0         0         0         0         0         0
         0         0         0         0         0         0         0         0
         0         0         0         0         0         0         0         0
         0         0         0         0         0         0         0         0
         0         0         0         0         0         0         0         0
         0         0         0         0         0         0         0         0
         0         0         0         0         0         0         0         0
         0         0         0         0         0         0         0         0
         0         0         0         0         0         0         0         0
         0         0         0         0         0         0         0         0
         0         0         0         0         0         0         0         0
         0         0         0         0         0         0         0         0
         0         0         0         0         0         0         0         0
         0         0         0         0         0         0         0         0
         0         0         0         0         0         0         0         0
         0         0         0         0         0         0         0         0
         0         0         0         0         0         0         0         0
         0         0         0         0         0         0         0         0
         0         0         0         0         0         0         0         0
         0         0         0         0         0         0         0         0
         0         0         0         0         0         0         0         0
         0         0         0         0         0         0         0         0
         0         0         0         0         0         0         0         0
         0         0         0         0         0         0         0         0
         0         0         0         0         0         0         0         0
         0         0         0         0         0         0         0         0
         0         0         0         0         0         0         0         0
         0         0         0         0         0         0         0         0
         0         0         0         0         0         0         0         0
         0         0         0         0         0         0         0         0
         0         0         0         0         0         0         0         0
         0         0         0         0         0         0         0         0
         0         0         0         0         0         0         0         0
         0         0         0         0         0         0         0         0
         0         0         0         0         0         0         0         0
         0         0         0         0         0         0         0         0
         0         0         0         0         0         0         0         0
         0         0         0         0         0         0         0         0
         0         0         0         0         0         0         0         0
         0         0         0         0         0         0         0         0
         0         0         0         0         0         0         0         0
         0         0         0         0         0         0         0         0
         0         0         0         0         0         0         0         0
         0         0         0         0         0         0         0         0
         0         0         0         0         0         0         0         0
         0         0         0         0         0         0         0         0
         0         0         0         0         0         0         0         0
         0         0         0         0         0         0         0         0
         0         0         0         0         0         0         0         0
         0         0         0         0         0         0         0         0
         0         0         0         0         0         0         0         0
         0         0         0         0         0         0         0         0
         0         0         0         0         0         0         0         0
         0         0         0         0         0         0         0         0
         0         0         0         0         0         0         0         0
         0         0         0         0         0         0         0         0
         0         0         0         0         0         0         0         0
         0         0         0         0         0         0         0         0
         0         0         0         0         0         0         0         0
         0         0         0         0         0         0         0         0
         0         0         0         0         0         0         0         0
         0         0         0         0         0         0         0         0
         0         0         0         0         0         0         0         0
         0         0         0         0         0         0         0         0
         0         0         0         0         0         0         0         0
         0         0         0         0         0         0         0         0
         0         0         0         0         0         0         0         0
         0         0         0         0         0         0         0         0
         0         0         0         0         0         0         0         0
         0         0         0         0         0         0         0         0
         0         0         0         0         0         0         0         0
         0         0         0         0         0         0         0         0
         0         0         0         0         0         0         0         0
         0         0         0         0         0         0         0         0
         0         0         0         0         0         0         0         0
         0         0         0         0         0         0         0         0
         0         0         0         0         0         0         0         0
         0         0         0         0         0         0         0         0
         0         0         0         0         0         0         0         0
         0         0         0         0         0         0         0         0
         0         0         0         0         0         0         0         0
         0         0         0         0         0         0         0         0
         0         0         0         0         0         0         0         0
         0         0         0         0         0         0         0         0
         0         0         0         0         0         0         0         0
         0         0         0         0         0         0         0         0
         0         0         0         0         0         0         0         0
         0         0         0         0         0         0         0         0
         0         0         0         0         0         0         0         0
         0         0         0         0         0         0         0         0
         0         0         0         0         0         0         0         0
         0         0         0         0         0         0         0         0
         0         0         0         0         0         0         0         0
         0         0         0         0         0         0         0         0
         0         0         0         0         0         0         0         0
         0         0         0         0         0         0         0         0
         0         0         0         0         0         0         0         0
         0         0         0         0         0         0         0         0
         0         0         0         0         0         0         0         0
         0         0         0         0         0         0         0         0
         0         0         0         0         0         0         0         0
         0         0         0         0         0         0         0         0
         0         0         0         0         0         0         0         0
         0         0         0         0         0         0         0         0
         0         0         0         0         0         0         0         0
         0         0         0         0         0         0         0         0
         0         0         0         0         0         0         0         0
         0         0         0         0         0         0         0         0
         0         0         0         0         0         0         0         0
         0         0         0         0         0         0         0         0
         0         0         0         0         0         0         0         0
         0         0         0         0         0         0         0         0
         0         0         0         0         0         0         0         0
         0         0         0         0         0         0         0         0
         0         0         0         0         0         0         0         0
         0         0         0         0         0         0         0         0
         0         0         0         0         0         0         0         0
         0         0         0         0         0         0         0         0
         0         0         0         0         0         0         0         0
         0         0         0         0         0         0         0         0
         0         0         0         0         0         0         0         0
         0         0         0         0         0         0         0         0
         0         0         0         0         0         0         0         0
         0         0         0         0         0         0         0         0
         0         0         0         0         0         0         0         0
         0         0         0         0         0         0         0         0
         0         0         0         0         0         0         0         0
         0         0         0         0         0         0         0         0
         0         0         0         0         0         0         0         0
         0         0         0         0         0         0         0         0
         0         0         0         0         0         0         0         0
         0         0         0         0         0         0         0         0
         0         0         0         0         0         0         0         0
         0         0         0         0         0         0         0         0
         0         0         0         0         0         0         0         0
         0         0         0         0         0         0         0         0
         0         0         0         0         0         0         0         0
         0         0         0         0         0         0         0         0
         0         0         0         0         0         0         0         0
         0         0         0         0         0         0         0         0
         0         0         0         0         0         0         0         0
         0         0         0         0         0         0         0         0
         0         0         0         0         0         0         0         0
         0         0         0         0         0         0         0         0
         0         0         0         0         0         0         0         0
         0         0         0         0         0         0         0         0
         0         0         0         0         0         0         0         0
         0         0         0         0         0         0         0         0
         0         0         0         0         0         0         0         0
         0         0         0         0         0         0         0         0
         0         0         0         0         0         0         0         0
         0         0         0         0         0         0         0         0
         0         0         0         0         0         0         0         0
         0         0         0         0         0         0         0         0
         0         0         0         0         0         0         0         0
         0         0         0         0         0         0         0         0
         0         0         0         0         0         0         0         0
         0         0         0         0         0         0         0         0
         0         0         0         0         0         0         0         0
         0         0         0         0         0         0         0         0
         0         0         0         0         0         0         0         0
         0         0         0         0         0         0         0         0
         0         0         0         0         0         0         0         0
         0         0         0         0         0         0         0         0
         0         0         0         0         0         0         0         0
         0         0         0         0         0         0         0         0
         0         0         0         0         0         0         0         0
         0         0         0         0         0         0         0         0
         0         0         0         0         0         0         0         0
         0         0         0         0         0         0         0         0
         0         0         0         0         0         0         0         0
         0         0         0         0         0         0         0         0
         0         0         0         0         0         0         0         0
         0         0         0         0         0         0         0         0
         0         0         0         0         0         0         0         0
         0         0         0         0         0         0         0         0
         0         0         0         0         0         0         0         0
         0         0         0         0         0         0         0         0
         0         0         0         0         0         0         0         0
         0         0         0         0         0         0         0         0
         0         0         0         0         0         0         0         0
         0         0         0         0         0         0         0         0
         0         0         0         0         0         0         0         0
         0         0         0         0         0         0         0         0
         0         0         0         0         0         0         0         0
         0         0         0         0         0         0         0         0
         0         0         0         0         0         0         0         0
         0         0         0         0         0         0         0         0
         0         0         0         0         0         0         0         0
         0         0         0         0         0         0         0         0
         0         0         0         0         0         0         0         0
         0         0         0         0         0         0         0         0
         0         0         0         0         0         0         0         0
         0         0         0         0         0         0         0         0
         0         0         0         0         0         0         0         0
         0         0         0         0         0         0         0         0
         0         0         0         0         0         0         0         0
         0         0         0         0         0         0         0         0
         0         0         0         0         0         0         0         0
         0         0         0         0         0         0         0         0
         0         0         0         0         0         0         0         0
         0         0         0         0         0         0         0         0
         0         0         0         0         0         0         0         0
         0         0         0         0         0         0         0         0
         0         0         0         0         0         0         0         0
         0         0         0         0         0         0         0         0
         0         0         0         0         0         0         0         0
         0         0         0         0         0         0         0         0
         0         0         0         0         0         0         0         0
         0         0         0         0         0         0         0         0
         0         0         0         0         0         0         0         0
         0         0         0         0         0         0         0         0
         0         0         0         0         0         0         0         0
         0         0         0         0         0         0         0         0
         0         0         0         0         0         0         0         0
         0         0         0         0         0         0         0         0
         0         0         0         0         0         0         0         0
         0         0         0         0         0         0         0         0
         0         0         0         0         0         0         0         0
         0         0         0         0         0         0         0         0
         0         0         0         0         0         0         0         0
         0         0         0         0         0         0         0         0
         0         0         0         0         0         0         0         0
         0         0         0         0         0         0         0         0
         0         0         0         0         0         0         0         0
         0         0         0         0         0         0         0         0
         0         0         0         0         0         0         0         0
         0         0         0         0         0         0         0         0
         0         0         0         0         0         0         0         0
         0         0         0         0         0         0         0         0
         0         0         0         0         0         0         0         0
         0         0         0         0         0         0         0         0
         0         0         0         0         0         0         0         0
         0         0         0         0         0         0         0         0
         0         0         0         0         0         0         0         0
         0         0         0         0         0         0         0         0
         0         0         0         0         0         0         0         0
         0         0         0         0         0         0         0         0
         0         0         0         0         0         0         0         0
         0         0         0         0         0         0         0         0
         0         0         0         0         0         0         0         0
         0         0         0         0         0         0         0         0
         0         0         0         0         0         0         0         0
         0         0         0         0         0         0         0         0
         0         0         0         0         0         0         0         0
         0         0         0         0         0         0         0         0
         0         0         0         0         0         0         0         0
         0         0         0         0         0         0         0         0
         0         0         0         0         0         0         0         0
         0         0         0         0         0         0         0         0
         0         0         0         0         0         0         0         0
         0         0         0         0         0         0         0         0
         0         0         0         0         0         0         0         0
         0         0         0         0         0         0         0         0
         0         0         0         0         0         0         0         0
         0         0         0         0         0         0         0         0
         0         0         0         0         0         0         0         0
         0         0         0         0         0         0         0         0
         0         0         0         0         0         0         0         0
         0         0         0         0         0         0         0         0
         0         0         0         0         0         0         0         0
         0         0         0         0         0         0         0         0
         0         0         0         0         0         0         0         0
         0         0         0         0         0         0         0         0
         0         0         0         0         0         0         0         0
         0         0         0         0         0         0         0         0
         0         0         0         0         0         0         0         0
         0         0         0         0         0         0         0         0
         0         0         0         0         0         0         0         0
         0         0         0         0         0         0         0         0
         0         0         0         0         0         0         0         0
         0         0         0         0         0         0         0         0
         0         0         0         0         0         0         0         0
         0         0         0         0         0         0         0         0
         0         0         0         0         0         0         0         0
         0         0         0         0         0         0         0         0
         0         0         0         0         0         0         0         0
         0         0         0         0         0         0         0         0
         0         0         0         0         0         0         0         0
         0         0         0         0         0         0         0         0
         0         0         0         0         0         0         0         0
         0         0         0         0         0         0         0         0
         0         0         0         0         0         0         0         0
         0         0         0         0         0         0         0         0
         0         0         0         0         0         0         0         0
         0         0         0         0         0         0         0         0
         0         0         0         0         0         0         0         0
         0         0         0         0         0         0         0         0
         0         0         0         0         0         0         0         0
         0         0         0         0         0         0         0         0
         0         0         0         0         0         0         0         0
         0         0         0         0         0         0         0         0
         0         0         0         0         0         0         0         0
         0         0         0         0         0         0         0         0
         0         0         0         0         0         0         0         0
         0         0         0         0         0         0         0         0
         0         0         0         0         0         0         0         0
         0         0         0         0         0         0         0         0
         0         0         0         0         0         0         0         0
         0         0         0         0         0         0         0         0
         0         0         0         0         0         0         0         0
         0         0         0         0         0         0         0         0
         0         0         0         0         0         0         0         0
         0         0         0         0         0         0         0         0
         0         0         0         0         0         0         0         0
         0         0         0         0         0         0         0         0
         0         0         0         0         0         0         0         0
         0         0         0         0         0         0         0         0
         0         0         0         0         0         0         0         0
         0         0         0         0         0         0         0         0
         0         0         0         0         0         0         0         0
         0         0         0         0         0         0         0         0
         0         0         0         0         0         0         0         0
         0         0         0         0         0         0         0         0
         0         0         0         0         0         0         0         0
         0         0         0         0         0         0         0         0
         0         0         0         0         0         0         0         0
         0         0         0         0         0         0         0         0
         0         0         0         0         0         0         0         0
         0         0         0         0         0         0         0         0
         0         0         0         0         0         0         0         0
         0         0         0         0         0         0         0         0
         0         0         0         0         0         0         0         0
         0         0         0         0         0         0         0         0
         0         0         0         0         0         0         0         0
         0         0         0         0         0         0         0         0
         0         0         0         0         0         0         0         0
         0         0         0         0         0         0         0         0
         0         0         0         0         0         0         0         0
         0         0         0         0         0         0         0         0
         0         0         0         0         0         0         0         0
         0         0         0         0         0         0         0         0
         0         0         0         0         0         0         0         0
         0         0         0         0         0         0         0         0
         0         0         0         0         0         0         0         0
         0         0         0         0         0         0         0         0
         0         0         0         0         0         0         0         0
         0         0         0         0         0         0         0         0
         0         0         0         0         0         0         0         0
         0         0         0         0         0         0         0         0
         0         0         0         0         0         0         0         0
         0         0         0         0         0         0         0         0
         0         0         0         0         0         0         0         0
         0         0         0         0         0         0         0         0
         0         0         0         0         0         0         0         0
         0         0         0         0         0         0         0         0
         0         0         0         0         0         0         0         0
         0         0         0         0         0         0         0         0
         0         0         0         0         0         0         0         0
         0         0         0         0         0         0         0         0
         0         0         0         0         0         0         0         0
         0         0         0         0         0         0         0         0
         0         0         0         0         0         0         0         0
         0         0         0         0         0         0         0         0
         0         0         0         0         0         0         0         0
         0         0         0         0         0         0         0         0
         0         0         0         0         0         0         0         0
         0         0         0         0         0         0         0         0
         0         0         0         0         0         0         0         0
         0         0         0         0         0         0         0         0
         0         0         0         0         0         0         0         0
         0         0         0         0         0         0         0         0
         0         0         0         0         0         0         0         0
         0         0         0         0         0         0         0         0
         0         0         0         0         0         0         0         0
         0         0         0         0         0         0         0         0
         0         0         0         0         0         0         0         0
         0         0         0         0         0         0         0         0
         0         0         0         0         0         0         0         0
         0         0         0         0         0         0         0         0
         0         0         0         0         0         0         0         0
         0         0         0         0         0         0         0         0
         0         0         0         0         0         0         0         0
         0         0         0         0         0         0         0         0
         0         0         0         0         0         0         0         0
         0         0         0         0         0         0         0         0
         0         0         0         0         0         0         0         0
         0         0         0         0         0         0         0         0
         0         0         0         0         0         0         0         0
         0         0         0         0         0         0         0         0
         0         0         0         0         0         0         0         0
         0         0         0         0         0         0         0         0
         0         0         0         0         0         0         0         0
         0         0         0         0         0         0         0         0
         0         0         0         0         0         0         0         0
         0         0         0         0         0         0         0         0
         0         0         0         0         0         0         0         0
         0         0         0         0         0         0         0         0
         0         0         0         0         0         0         0         0
         0         0         0         0         0         0         0         0
         0         0         0         0         0         0         0         0
         0         0         0         0         0         0         0         0
         0         0         0         0         0         0         0         0
         0         0         0         0         0         0         0         0
         0         0         0         0         0         0         0         0
         0         0         0         0         0         0         0         0
         0         0         0         0         0         0         0         0
         0         0         0         0         0         0         0         0
         0         0         0         0         0         0         0         0
         0         0         0         0         0         0         0         0
         0         0         0         0         0         0         0         0
         0         0         0         0         0         0         0         0
         0         0         0         0         0         0         0         0
         0         0         0         0         0         0         0         0
         0         0         0         0         0         0         0         0
         0         0         0         0         0         0         0         0
         0         0         0         0         0         0         0         0
         0         0         0         0         0         0         0         0
         0         0         0         0         0         0         0         0
         0         0         0         0         0         0         0         0
         0         0         0         0         0         0         0         0
         0         0         0         0         0         0         0         0
         0         0         0         0         0         0         0         0
         0         0         0         0         0         0         0         0
         0         0         0         0         0         0         0         0
         0         0         0         0         0         0         0         0
         0         0         0         0         0         0         0         0
         0         0         0         0         0         0         0         0
         0         0         0         0         0         0         0         0
         0         0         0         0         0         0         0         0
         0         0         0         0         0         0         0         0
         0         0         0         0         0         0         0         0
         0         0         0         0         0         0         0         0
         0         0         0         0         0         0         0         0
         0         0         0         0         0         0         0         0
         0         0         0         0         0         0         0         0
         0         0         0         0         0         0         0         0
         0         0         0         0         0         0         0         0
         0         0         0         0         0         0         0         0
         0         0         0         0         0         0         0         0
         0         0         0         0         0         0         0         0
         0         0         0         0         0         0         0         0
         0         0         0         0         0         0         0         0
         0         0         0         0         0         0         0         0
         0         0         0         0         0         0         0         0
         0         0         0         0         0         0         0         0
         0         0         0         0         0         0         0         0
         0         0         0         0         0         0         0         0
         0         0         0         0         0         0         0         0
         0         0         0         0         0         0         0         0
         0         0         0         0         0         0         0         0
         0         0         0         0         0         0         0         0
         0         0         0         0         0         0         0         0
         0         0         0         0         0         0         0         0
         0         0         0         0         0         0         0         0
         0         0         0         0         0         0         0         0
         0         0         0         0         0         0         0         0
         0         0         0         0         0         0         0         0
         0         0         0         0         0         0         0         0
         0         0         0         0         0         0         0         0
         0         0         0         0         0         0         0         0
         0         0         0         0         0         0         0         0
         0         0         0         0         0         0         0         0
         0         0         0         0         0         0         0         0
         0         0         0         0         0         0         0         0
         0         0         0         0         0         0         0         0
         0         0         0         0         0         0         0         0
         0         0         0         0         0         0         0         0
         0         0         0         0         0         0         0         0
         0         0         0         0         0         0         0         0
         0         0         0         0         0         0         0         0
         0         0         0         0         0         0         0         0
         0         0         0         0         0         0         0         0
         0         0         0         0         0         0         0         0
         0         0         0         0         0         0         0         0
         0         0         0         0         0         0         0         0
         0         0         0         0         0         0         0         0
         0         0         0         0         0         0         0         0
         0         0         0         0         0         0         0         0
         0         0         0         0         0         0         0         0
         0         0         0         0         0         0         0         0
         0         0         0         0         0         0         0         0
         0         0         0         0         0         0         0         0
         0         0         0         0         0         0         0         0
         0         0         0         0         0         0         0         0
         0         0         0         0         0         0         0         0
         0         0         0         0         0         0         0         0
         0         0         0         0         0         0         0         0
         0         0         0         0         0         0         0         0
         0         0         0         0         0         0         0         0
         0         0         0         0         0         0         0         0
         0         0         0         0         0         0         0         0
         0         0         0         0         0         0         0         0
         0         0         0         0         0         0         0         0
         0         0         0         0         0         0         0         0
         0         0         0         0         0         0         0         0
         0         0         0         0         0         0         0         0
         0         0         0         0         0         0         0         0
         0         0         0         0         0         0         0         0
         0         0         0         0         0         0         0         0
         0         0         0         0         0         0         0         0
         0         0         0         0         0         0         0         0
         0         0         0         0         0         0         0         0
         0         0         0         0         0         0         0         0
         0         0         0         0         0         0         0         0
         0         0         0         0         0         0         0         0
         0         0         0         0         0         0         0         0
         0         0         0         0         0         0         0         0
         0         0         0         0         0         0         0         0
         0         0         0         0         0         0         0         0
         0         0         0         0         0         0         0         0
         0         0         0         0         0         0         0         0
         0         0         0         0         0         0         0         0
         0         0         0         0         0         0         0         0
         0         0         0         0         0         0         0         0
         0         0         0         0         0         0         0         0
         0         0         0         0         0         0         0         0
         0         0         0         0         0         0         0         0
         0         0         0         0         0         0         0         0
         0         0         0         0         0         0         0         0
         0         0         0         0         0         0         0         0
         0         0         0         0         0         0         0         0
         0         0         0         0         0         0         0         0
         0         0         0         0         0         0         0         0
         0         0         0         0         0         0         0         0
         0         0         0         0         0         0         0         0
         0         0         0         0         0         0         0         0
         0         0         0         0         0         0         0         0
         0         0         0         0         0         0         0         0
         0         0         0         0         0         0         0         0
         0         0         0         0         0         0         0         0
         0         0         0         0         0         0         0         0
         0         0         0         0         0         0         0         0
         0         0         0         0         0         0         0         0
         0         0         0         0         0         0         0         0
         0         0         0         0         0         0         0         0
         0         0         0         0         0         0         0         0
         0         0         0         0         0         0         0         0
         0         0         0         0         0         0         0         0
         0         0         0         0         0         0         0         0
         0         0         0         0         0         0         0         0
         0         0         0         0         0         0         0         0
         0         0         0         0         0         0         0         0
         0         0         0         0         0         0         0         0
         0         0         0         0         0         0         0         0
         0         0         0         0         0         0         0         0
         0         0         0         0         0         0         0         0
         0         0         0         0         0         0         0         0
         0         0         0         0         0         0         0         0
         0         0         0         0         0         0         0         0
         0         0         0         0         0         0         0         0
         0         0         0         0         0         0         0         0
         0         0         0         0         0         0         0         0
         0         0         0         0         0         0         0         0
         0         0         0         0         0         0         0         0
         0         0         0         0         0         0         0         0
         0         0         0         0         0         0         0         0
         0         0         0         0         0         0         0         0
         0         0         0         0         0         0         0         0
         0         0         0         0         0         0         0         0
         0         0         0         0         0         0         0         0
         0         0         0         0         0         0         0         0
         0         0         0         0         0         0         0         0
         0         0         0         0         0         0         0         0
         0         0         0         0         0         0         0         0
         0         0         0         0         0         0         0         0
         0         0         0         0         0         0         0         0
         0         0         0         0         0         0         0         0
         0         0         0         0         0         0         0         0
         0         0         0         0         0         0         0         0
         0         0         0         0         0         0         0         0
         0         0         0         0         0         0         0         0
         0         0         0         0         0         0         0         0
         0         0         0         0         0         0         0         0
         0         0         0         0         0         0         0         0
         0         0         0         0         0         0         0         0
         0         0         0         0         0         0         0         0
         0         0         0         0         0         0         0         0
         0         0         0         0         0         0         0         0
         0         0         0         0         0         0         0         0
         0         0         0         0         0         0         0         0
         0         0         0         0         0         0         0         0
         0         0         0         0         0         0         0         0
         0         0         0         0         0         0         0         0
         0         0         0         0         0         0         0         0
         0         0         0         0         0         0         0         0
         0         0         0         0         0         0         0         0
         0         0         0         0         0         0         0         0
         0         0         0         0         0         0         0         0
         0         0         0         0         0         0         0         0
         0         0         0         0         0         0         0         0
         0         0         0         0         0         0         0         0
         0         0         0         0         0         0         0         0
         0         0         0         0         0         0         0         0
         0         0         0         0         0         0         0         0
         0         0         0         0         0         0         0         0
         0         0         0         0         0         0         0         0
         0         0         0         0         0         0         0         0
         0         0         0         0         0         0         0         0
         0         0         0         0         0         0         0         0
         0         0         0         0         0         0         0         0
         0         0         0         0         0         0         0         0
         0         0         0         0         0         0         0         0
         0         0         0         0         0         0         0         0
         0         0         0         0         0         0         0         0
         0         0         0         0         0         0         0         0
         0         0         0         0         0         0         0         0
         0         0         0         0         0         0         0         0
         0         0         0         0         0         0         0         0
         0         0         0         0         0         0         0         0
         0         0         0         0         0         0         0         0
         0         0         0         0         0         0         0         0
         0         0         0         0         0         0         0         0
         0         0         0         0         0         0         0         0
         0         0         0         0         0         0         0         0
         0         0         0         0         0         0         0         0
         0         0         0         0         0         0         0         0
         0         0         0         0         0         0         0         0
         0         0         0         0         0         0         0         0
         0         0         0         0         0         0         0         0
         0         0         0         0         0         0         0         0
         0         0         0         0         0         0         0         0
         0         0         0         0         0         0         0         0
         0         0         0         0         0         0         0         0
         0         0         0         0         0         0         0         0
         0         0         0         0         0         0         0         0
         0         0         0         0         0         0         0         0
         0         0         0         0         0         0         0         0
         0         0         0         0         0         0         0         0
         0         0         0         0         0         0         0         0
         0         0         0         0         0         0         0         0
         0         0         0         0         0         0         0         0
         0         0         0         0         0         0         0         0
         0         0         0         0         0         0         0         0
         0         0         0         0         0         0         0         0
         0         0         0         0         0         0         0         0
         0         0         0         0         0         0         0         0
         0         0         0         0         0         0         0         0
         0         0         0         0         0         0         0         0
         0         0         0         0         0         0         0         0
         0         0         0         0         0         0         0         0
         0         0         0         0         0         0         0         0
         0         0         0         0         0         0         0         0
         0         0         0         0         0         0         0         0
         0         0         0         0         0         0         0         0
         0         0         0         0         0         0         0         0
         0         0         0         0         0         0         0         0
         0         0         0         0         0         0         0         0
         0         0         0         0         0         0         0         0
         0         0         0         0         0         0         0         0
         0         0         0         0         0         0         0         0
         0         0         0         0         0         0         0         0
         0         0         0         0         0         0         0         0
         0         0         0         0         0         0         0         0
         0         0         0         0         0         0         0         0
         0         0         0         0         0         0         0         0
         0         0         0         0         0         0         0         0
         0         0         0         0         0         0         0         0
         0         0         0         0         0         0         0         0
         0         0         0         0         0         0         0         0
         0         0         0         0         0         0         0         0
         0         0         0         0         0         0         0         0
         0         0         0         0         0         0         0         0
         0         0         0         0         0         0         0         0
         0         0         0         0         0         0         0         0
         0         0         0         0         0         0         0         0
         0         0         0         0         0         0         0         0
         0         0         0         0         0         0         0         0
         0         0         0         0         0         0         0         0
         0         0         0         0         0         0         0         0
         0         0         0         0         0         0         0         0
         0         0         0         0         0         0         0         0
         0         0         0         0         0         0         0         0
         0         0         0         0         0         0         0         0
         0         0         0         0         0         0         0         0
         0         0         0         0         0         0         0         0
         0         0         0         0         0         0         0         0
         0         0         0         0         0         0         0         0
         0         0         0         0         0         0         0         0
         0         0         0         0         0         0         0         0
         0         0         0         0         0         0         0         0
         0         0         0         0         0         0         0         0
         0         0         0         0         0         0         0         0
         0         0         0         0         0         0         0         0
         0         0         0         0         0         0         0         0
         0         0         0         0         0         0         0         0
         0         0         0         0         0         0         0         0
         0         0         0         0         0         0         0         0
         0         0         0         0         0         0         0         0
         0         0         0         0         0         0         0         0
         0         0         0         0         0         0         0         0
         0         0         0         0         0         0         0         0
         0         0         0         0         0         0         0         0
         0         0         0         0         0         0         0         0
         0         0         0         0         0         0         0         0
         0         0         0         0         0         0         0         0
         0         0         0         0         0         0         0         0
         0         0         0         0         0         0         0         0
         0         0         0         0         0         0         0         0
         0         0         0         0         0         0         0         0
         0         0         0         0         0         0         0         0
         0         0         0         0         0         0         0         0
         0         0         0         0         0         0         0         0
         0         0         0         0         0         0         0         0
         0         0         0         0         0         0         0         0
         0         0         0         0         0         0         0         0
         0         0         0         0         0         0         0         0
         0         0         0         0         0         0         0         0
         0         0         0         0         0         0         0         0
         0         0         0         0         0         0         0         0
         0         0         0         0         0         0         0         0
         0         0         0         0         0         0         0         0
         0         0         0         0         0         0         0         0
         0         0         0         0         0         0         0         0
         0         0         0         0         0         0         0         0
         0         0         0         0         0         0         0         0
         0         0         0         0         0         0         0         0
         0         0         0         0         0         0         0         0
         0         0         0         0         0         0         0         0
         0         0         0         0         0         0         0         0
         0         0         0         0         0         0         0         0
         0         0         0         0         0         0         0         0
         0         0         0         0         0         0         0         0
         0         0         0         0         0         0         0         0
         0         0         0         0         0         0         0         0
         0         0         0         0         0         0         0         0
         0         0         0         0         0         0         0         0
         0         0         0         0         0         0         0         0
         0         0         0         0         0         0         0         0
         0         0         0         0         0         0         0         0
         0         0         0         0         0         0         0         0
         0         0         0         0         0         0         0         0
         0         0         0         0         0         0         0         0
         0         0         0         0         0         0         0         0
         0         0         0         0         0         0         0         0
         0         0         0         0         0         0         0         0
         0         0         0         0         0         0         0         0
         0         0         0         0         0         0         0         0
         0         0         0         0         0         0         0         0
         0         0         0         0         0         0         0         0
         0         0         0         0         0         0         0         0
         0         0         0         0         0         0         0         0
         0         0         0         0         0         0         0         0
         0         0         0         0         0         0         0         0
         0         0         0         0         0         0         0         0
         0         0         0         0         0         0         0         0
         0         0         0         0         0         0         0         0
         0         0         0         0         0         0         0         0
         0         0         0         0         0         0         0         0
         0         0         0         0         0         0         0         0
         0         0         0         0         0         0         0         0
         0         0         0         0         0         0         0         0
         0         0         0         0         0         0         0         0
         0         0         0         0         0         0         0         0
         0         0         0         0         0         0         0         0
         0         0         0         0         0         0         0         0
         0         0         0         0         0         0         0         0
         0         0         0         0         0         0         0         0
         0         0         0         0         0         0         0         0
         0         0         0         0         0         0         0         0
         0         0         0         0         0         0         0         0
         0         0         0         0         0         0         0         0
         0         0         0         0         0         0         0         0
         0         0         0         0         0         0         0         0
         0         0         0         0         0         0         0         0
         0         0         0         0         0         0         0         0
         0         0         0         0         0         0         0         0
         0         0         0         0         0         0         0         0
         0         0         0         0         0         0         0         0
         0         0         0         0         0         0         0         0
         0         0         0         0         0         0         0         0
         0         0         0         0         0         0         0         0
         0         0         0         0         0         0         0         0
         0         0         0         0         0         0         0         0
         0         0         0         0         0         0         0         0
         0         0         0         0         0         0         0         0
         0         0         0         0         0         0         0         0
         0         0         0         0         0         0         0         0
         0         0         0         0         0         0         0         0
         0         0         0         0         0         0         0         0
         0         0         0         0         0         0         0         0
         0         0         0         0         0         0         0         0
         0         0         0         0         0         0         0         0
         0         0         0         0         0         0         0         0
         0         0         0         0         0         0         0         0
         0         0         0         0         0         0         0         0
         0         0         0         0         0         0         0         0
         0         0         0         0         0         0         0         0
         0         0         0         0         0         0         0         0
         0         0         0         0         0         0         0         0
         0         0         0         0         0         0         0         0
         0         0         0         0         0         0         0         0
         0         0         0         0         0         0         0         0
         0         0         0         0         0         0         0         0
         0         0         0         0         0         0         0         0
         0         0         0         0         0         0         0         0
         0         0         0         0         0         0         0         0
         0         0         0         0         0         0         0         0
         0         0         0         0         0         0         0         0
         0         0         0         0         0         0         0         0
         0         0         0         0         0         0         0         0
         0         0         0         0         0         0         0         0
         0         0         0         0         0         0         0         0
         0         0         0         0         0         0         0         0
         0         0         0         0         0         0         0         0
         0         0         0         0         0         0         0         0
         0         0         0         0         0         0         0         0
         0         0         0         0         0         0         0         0
         0         0         0         0         0         0         0         0
         0         0         0         0         0         0         0         0
         0         0         0         0         0         0         0         0
         0         0         0         0         0         0         0         0
         0         0         0         0         0         0         0         0
         0         0         0         0         0         0         0         0
         0         0         0         0         0         0         0         0
         0         0         0         0         0         0         0         0
         0         0         0         0         0         0         0         0
         0         0         0         0         0         0         0         0
         0         0         0         0         0         0         0         0
         0         0         0         0         0         0         0         0
         0         0         0         0         0         0         0         0
         0         0         0         0         0         0         0         0
         0         0         0         0         0         0         0         0
         0         0         0         0         0         0         0         0
         0         0         0         0         0         0         0         0
         0         0         0         0         0         0         0         0
         0         0         0         0         0         0         0         0
         0         0         0         0         0         0         0         0
         0         0         0         0         0         0         0         0
         0         0         0         0         0         0         0         0
         0         0         0         0         0         0         0         0
         0         0         0         0         0         0         0         0
         0         0         0         0         0         0         0         0
         0         0         0         0         0         0         0         0
         0         0         0         0         0         0         0         0
         0         0         0         0         0         0         0         0
         0         0         0         0         0         0         0         0
         0         0         0         0         0         0         0         0
         0         0         0         0         0         0         0         0
         0         0         0         0         0         0         0         0
         0         0         0         0         0         0         0         0
         0         0         0         0         0         0         0         0
         0         0         0         0         0         0         0         0
         0         0         0         0         0         0         0         0
         0         0         0         0         0         0         0         0
         0         0         0         0         0         0         0         0
         0         0         0         0         0         0         0         0
         0         0         0         0         0         0         0         0
         0         0         0         0         0         0         0         0
         0         0         0         0         0         0         0         0
         0         0         0         0         0         0         0         0
         0         0         0         0         0         0         0         0
         0         0         0         0         0         0         0         0
         0         0         0         0         0         0         0         0
         0         0         0         0         0         0         0         0
         0         0         0         0         0         0         0         0
         0         0         0         0         0         0         0         0
         0         0         0         0         0         0         0         0
         0         0         0         0         0         0         0         0
         0         0         0         0         0         0         0         0
         0         0         0         0         0         0         0         0
         0         0         0         0         0         0         0         0
         0         0         0         0         0         0         0         0
         0         0         0         0         0         0         0         0
         0         0         0         0         0         0         0         0
         0         0         0         0         0         0         0         0
         0         0         0         0         0         0         0         0
         0         0         0         0         0         0         0         0
         0         0         0         0         0         0         0         0
         0         0         0         0         0         0         0         0
         0         0         0         0         0         0         0         0
         0         0         0         0         0         0         0         0
         0         0         0         0         0         0         0         0
         0         0         0         0         0         0         0         0
         0         0         0         0         0         0         0         0
         0         0         0         0         0         0         0         0
         0         0         0         0         0         0         0         0
         0         0         0         0         0         0         0         0
         0         0         0         0         0         0         0         0
         0         0         0         0         0         0         0         0
         0         0         0         0         0         0         0         0
         0         0         0         0         0         0         0         0
         0         0         0         0         0         0         0         0
         0         0         0         0         0         0         0         0
         0         0         0         0         0         0         0         0
         0         0         0         0         0         0         0         0
         0         0         0         0         0         0         0         0
         0         0         0         0         0         0         0         0
         0         0         0         0         0         0         0         0
         0         0         0         0         0         0         0         0
         0         0         0         0         0         0         0         0
         0         0         0         0         0         0         0         0
         0         0         0         0         0         0         0         0
         0         0         0         0         0         0         0         0
         0         0         0         0         0         0         0         0
         0         0         0         0         0         0         0         0
         0         0         0         0         0         0         0         0
         0         0         0         0         0         0         0         0
         0         0         0         0         0         0         0         0
         0         0         0         0         0         0         0         0
         0         0         0         0         0         0         0         0
         0         0         0         0         0         0         0         0
         0         0         0         0         0         0         0         0
         0         0         0         0         0         0         0         0
         0         0         0         0         0         0         0         0
         0         0         0         0         0         0         0         0
         0         0         0         0         0         0         0         0
         0         0         0         0         0         0         0         0
         0         0         0         0         0         0         0         0
         0         0         0         0         0         0         0         0
         0         0         0         0         0         0         0         0
         0         0         0         0         0         0         0         0
         0         0         0         0         0         0         0         0
         0         0         0         0         0         0         0         0
         0         0         0         0         0         0         0         0
         0         0         0         0         0         0         0         0
         0         0         0         0         0         0         0         0
         0         0         0         0         0         0         0         0
         0         0         0         0         0         0         0         0
         0         0         0         0         0         0         0         0
         0         0         0         0         0         0         0         0
         0         0         0         0         0         0         0         0
         0         0         0         0         0         0         0         0
         0         0         0         0         0         0         0         0
         0         0         0         0         0         0         0         0
         0         0         0         0         0         0         0         0
         0         0         0         0         0         0         0         0
         0         0         0         0         0         0         0         0
         0         0         0         0         0         0         0         0
         0         0         0         0         0         0         0         0
         0         0         0         0         0         0         0         0
         0         0         0         0         0         0         0         0
         0         0         0         0         0         0         0         0
         0         0         0         0         0         0         0         0
         0         0         0         0         0         0         0         0
         0         0         0         0         0         0         0         0
         0         0         0         0         0         0         0         0
         0         0         0         0         0         0         0         0
         0         0         0         0         0         0         0         0
         0         0         0         0         0         0         0         0
         0         0         0         0         0         0         0         0
         0         0         0         0         0         0         0         0
         0         0         0         0         0         0         0         0
         0         0         0         0         0         0         0         0
         0         0         0         0         0         0         0         0
         0         0         0         0         0         0         0         0
         0         0         0         0         0         0         0         0
         0         0         0         0         0         0         0         0
         0         0         0         0         0         0         0         0
         0         0         0         0         0         0         0         0
         0         0         0         0         0         0         0         0
         0         0         0         0         0         0         0         0
         0         0         0         0         0         0         0         0
         0         0         0         0         0         0         0         0
         0         0         0         0         0         0         0         0
         0         0         0         0         0         0         0         0
         0         0         0         0         0         0         0         0
         0         0         0         0         0         0         0         0
         0         0         0         0         0         0         0         0
         0         0         0         0         0         0         0         0
         0         0         0         0         0         0         0         0
         0         0         0         0         0         0         0         0
         0         0         0         0         0         0         0         0
         0         0         0         0         0         0         0         0
         0         0         0         0         0         0         0         0
         0         0         0         0         0         0         0         0
         0         0         0         0         0         0         0         0
         0         0         0         0         0         0         0         0
         0         0         0         0         0         0         0         0
         0         0         0         0         0         0         0         0
         0         0         0         0         0         0         0         0
         0         0         0         0         0         0         0         0
         0         0         0         0         0         0         0         0
         0         0         0         0         0         0         0         0
         0         0         0         0         0         0         0         0
         0         0         0         0         0         0         0         0
         0         0         0         0         0         0         0         0
         0         0         0         0         0         0         0         0
         0         0         0         0         0         0         0         0
         0         0         0         0         0         0         0         0
         0         0         0         0         0         0         0         0
         0         0         0         0         0         0         0         0
         0         0         0         0         0         0         0         0
         0         0         0         0         0         0         0         0
         0         0         0         0         0         0         0         0
         0         0         0         0         0         0         0         0
         0         0         0         0         0         0         0         0
         0         0         0         0         0         0         0         0
         0         0         0         0         0         0         0         0
         0         0         0         0         0         0         0         0
         0         0         0         0         0         0         0         0
         0         0         0         0         0         0         0         0
         0         0         0         0         0         0         0         0
         0         0         0         0         0         0         0         0
         0         0         0         0         0         0         0         0
         0         0         0         0         0         0         0         0
         0         0         0         0         0         0         0         0
         0         0         0         0         0         0         0         0
         0         0         0         0         0         0         0         0
         0         0         0         0         0         0         0         0
         0         0         0         0         0         0         0         0
         0         0         0         0         0         0         0         0
         0         0         0         0         0         0         0         0
         0         0         0         0         0         0         0         0
         0         0         0         0         0         0         0         0
         0         0         0         0         0         0         0         0
         0         0         0         0         0         0         0         0
         0         0         0         0         0         0         0         0
         0         0         0         0         0         0         0         0
         0         0         0         0         0         0         0         0
         0         0         0         0         0         0         0         0
         0         0         0         0         0         0         0         0
         0         0         0         0         0         0         0         0
         0         0         0         0         0         0         0         0
         0         0         0         0         0         0         0         0
         0         0         0         0         0         0         0         0
         0         0         0         0         0         0         0         0
         0         0         0         0         0         0         0         0
         0         0         0         0         0         0         0         0
         0         0         0         0         0         0         0         0
         0         0         0         0         0         0         0         0
         0         0         0         0         0         0         0         0
         0         0         0         0         0         0         0         0
         0         0         0         0         0         0         0         0
         0         0         0         0         0         0         0         0
         0         0         0         0         0         0         0         0
         0         0         0         0         0         0         0         0
         0         0         0         0         0         0         0         0
         0         0         0         0         0         0         0         0
         0         0         0         0         0         0         0         0
         0         0         0         0         0         0         0         0
         0         0         0         0         0         0         0         0
         0         0         0         0         0         0         0         0
         0         0         0         0         0         0         0         0
         0         0         0         0         0         0         0         0
         0         0         0         0         0         0         0         0
         0         0         0         0         0         0         0         0
         0         0         0         0         0         0         0         0
         0         0         0         0         0         0         0         0
         0         0         0         0         0         0         0         0
         0         0         0         0         0         0         0         0
         0         0         0         0         0         0         0         0
         0         0         0         0         0         0         0         0
         0         0         0         0         0         0         0         0
         0         0         0         0         0         0         0         0
         0         0         0         0         0         0         0         0
         0         0         0         0         0         0         0         0
         0         0         0         0         0         0         0         0
         0         0         0         0         0         0         0         0
         0         0         0         0         0         0         0         0
         0         0         0         0         0         0         0         0
         0         0         0         0         0         0         0         0
         0         0         0         0         0         0         0         0
         0         0         0         0         0         0         0         0
         0         0         0         0         0         0         0         0
         0         0         0         0         0         0         0         0
         0         0         0         0         0         0         0         0
         0         0         0         0         0         0         0         0
         0         0         0         0         0         0         0         0
         0         0         0         0         0         0         0         0
         0         0         0         0         0         0         0         0
         0         0         0         0         0         0         0         0
         0         0         0         0         0         0         0         0
         0         0         0         0         0         0         0         0
         0         0         0         0         0         0         0         0
         0         0         0         0         0         0         0         0
         0         0         0         0         0         0         0         0
         0         0         0         0         0         0         0         0
         0         0         0         0         0         0         0         0
         0         0         0         0         0         0         0         0
         0         0         0         0         0         0         0         0
         0         0         0         0         0         0         0         0
         0         0         0         0         0         0         0         0
         0         0         0         0         0         0         0         0
         0         0         0         0         0         0         0         0
         0         0         0         0         0         0         0         0
         0         0         0         0         0         0         0         0
         0         0         0         0         0         0         0         0
         0         0         0         0         0         0         0         0
         0         0         0         0         0         0         0         0
         0         0         0         0         0         0         0         0
         0         0         0         0         0         0         0         0
         0         0         0         0         0         0         0         0
         0         0         0         0         0         0         0         0
         0         0         0         0         0         0         0         0
         0         0         0         0         0         0         0         0
         0         0         0         0         0         0         0         0
         0         0         0         0         0         0         0         0
         0         0         0         0         0         0         0         0
         0         0         0         0         0         0         0         0
         0         0         0         0         0         0         0         0
         0         0         0         0         0         0         0         0
         0         0         0         0         0         0         0         0
         0         0         0         0         0         0         0         0
         0         0         0         0         0         0         0         0
         0         0         0         0         0         0         0         0
         0         0         0         0         0         0         0         0
         0         0         0         0         0         0         0         0
         0         0         0         0         0         0         0         0
         0         0         0         0         0         0         0         0
         0         0         0         0         0         0         0         0
         0         0         0         0         0         0         0         0
         0         0         0         0         0         0         0         0
         0         0         0         0         0         0         0         0
         0         0         0         0         0         0         0         0
         0         0         0         0         0         0         0         0
         0         0         0         0         0         0         0         0
         0         0         0         0         0         0         0         0
         0         0         0         0         0         0         0         0
         0         0         0         0         0         0         0         0
         0         0         0         0         0         0         0         0
         0         0         0         0         0         0         0         0
         0         0         0         0         0         0         0         0
         0         0         0         0         0         0         0         0
         0         0         0         0         0         0         0         0
         0         0         0         0         0         0         0         0
         0         0         0         0         0         0         0         0
         0         0         0         0         0         0         0         0
         0         0         0         0         0         0         0         0
         0         0         0         0         0         0         0         0
         0         0         0         0         0         0         0         0
         0         0         0         0         0         0         0         0
         0         0         0         0         0         0         0         0
         0         0         0         0         0         0         0         0
         0         0         0         0         0         0         0         0
         0         0         0         0         0         0         0         0
         0         0         0         0         0         0         0         0
         0         0         0         0         0         0         0         0
         0         0         0         0         0         0         0         0
         0         0         0         0         0         0         0         0
         0         0         0         0         0         0         0         0
         0         0         0         0         0         0         0         0
         0         0         0         0         0         0         0         0
         0         0         0         0         0         0         0         0
         0         0         0         0         0         0         0         0
         0         0         0         0         0         0         0         0
         0         0         0         0         0         0         0         0
         0         0         0         0         0         0         0         0
         0         0         0         0         0         0         0         0
         0         0         0         0         0         0         0         0
         0         0         0         0         0         0         0         0
         0         0         0         0         0         0         0         0
         0         0         0         0         0         0         0         0
         0         0         0         0         0         0         0         0
         0         0         0         0         0         0         0         0
         0         0         0         0         0         0         0         0
         0         0         0         0         0         0         0         0
         0         0         0         0         0         0         0         0
         0         0         0         0         0         0         0         0
         0         0         0         0         0         0         0         0
         0         0         0         0         0         0         0         0
         0         0         0         0         0         0         0         0
         0         0         0         0         0         0         0         0
         0         0         0         0         0         0         0         0
         0         0         0         0         0         0         0         0
         0         0         0         0         0         0         0         0
         0         0         0         0         0         0         0         0
         0         0         0         0         0         0         0         0
         0         0         0         0         0         0         0         0
         0         0         0         0         0         0         0         0
         0         0         0         0         0         0         0         0
         0         0         0         0         0         0         0         0
         0         0         0         0         0         0         0         0
         0         0         0         0         0         0         0         0
         0         0         0         0         0         0         0         0
         0         0         0         0         0         0         0         0
         0         0         0         0         0         0         0         0
         0         0         0         0         0         0         0         0
         0         0         0         0         0         0         0         0
         0         0         0         0         0         0         0         0
         0         0         0         0         0         0         0         0
         0         0         0         0         0         0         0         0
         0         0         0         0         0         0         0         0
         0         0         0         0         0         0         0         0
         0         0         0         0         0         0         0         0
         0         0         0         0         0         0         0         0
         0         0         0         0         0         0         0         0
         0         0         0         0         0         0         0         0
         0         0         0         0         0         0         0         0
         0         0         0         0         0         0         0         0
         0         0         0         0         0         0         0         0
         0         0         0         0         0         0         0         0
         0         0         0         0         0         0         0         0
         0         0         0         0         0         0         0         0
         0         0         0         0         0         0         0         0
         0         0         0         0         0         0         0         0
         0         0         0         0         0         0         0         0
         0         0         0         0         0         0         0         0
         0         0         0         0         0         0         0         0
         0         0         0         0         0         0         0         0
         0         0         0         0         0         0         0         0
         0         0         0         0         0         0         0         0
         0         0         0         0         0         0         0         0
         0         0         0         0         0         0         0         0
         0         0         0         0         0         0         0         0
         0         0         0         0         0         0         0         0
         0         0         0         0         0         0         0         0
         0         0         0         0         0         0         0         0
         0         0         0         0         0         0         0         0
         0         0         0         0         0         0         0         0
         0         0         0         0         0         0         0         0
         0         0         0         0         0         0         0         0
         0         0         0         0         0         0         0         0
         0         0         0         0         0         0         0         0
         0         0         0         0         0         0         0         0
         0         0         0         0         0         0         0         0
         0         0         0         0         0         0         0         0
         0         0         0         0         0         0         0         0
         0         0         0         0         0         0         0         0
         0         0         0         0         0         0         0         0
         0         0         0         0         0         0         0         0
         0         0         0         0         0         0         0         0
         0         0         0         0         0         0         0         0
         0         0         0         0         0         0         0         0
         0         0         0         0         0         0         0         0
         0         0         0         0         0         0         0         0
         0         0         0         0         0         0         0         0
         0         0         0         0         0         0         0         0
         0         0         0         0         0         0         0         0
         0         0         0         0         0         0         0         0
         0         0         0         0         0         0         0         0
         0         0         0         0         0         0         0         0
         0         0         0         0         0         0         0         0
         0         0         0         0         0         0         0         0
         0         0         0         0         0         0         0         0
         0         0         0         0         0         0         0         0
         0         0         0         0         0         0         0         0
         0         0         0         0         0         0         0         0
         0         0         0         0         0         0         0         0
         0         0         0         0         0         0         0         0
         0         0         0         0         0         0         0         0
         0         0         0         0         0         0         0         0
         0         0         0         0         0         0         0         0
         0         0         0         0         0         0         0         0
         0         0         0         0         0         0         0         0
         0         0         0         0         0         0         0         0
         0         0         0         0         0         0         0         0
         0         0         0         0         0         0         0         0
         0         0         0         0         0         0         0         0
         0         0         0         0         0         0         0         0
         0         0         0         0         0         0         0         0
         0         0         0         0         0         0         0         0
         0         0         0         0         0         0         0         0
         0         0         0         0         0         0         0         0
         0         0         0         0         0         0         0         0
         0         0         0         0         0         0         0         0
         0         0         0         0         0         0         0         0
         0         0         0         0         0         0         0         0
         0         0         0         0         0         0         0         0
         0         0         0         0         0         0         0         0
         0         0         0         0         0         0         0         0
         0         0         0         0         0         0         0         0
         0         0         0         0         0         0         0         0
         0         0         0         0         0         0         0         0
         0         0         0         0         0         0         0         0
         0         0         0         0         0         0         0         0
         0         0         0         0         0         0         0         0
         0         0         0         0         0         0         0         0
         0         0         0         0         0         0         0         0
         0         0         0         0         0         0         0         0
         0         0         0         0         0         0         0         0
         0         0         0         0         0         0         0         0
         0         0         0         0         0         0         0         0
         0         0         0         0         0         0         0         0
         0         0         0         0         0         0         0         0
         0         0         0         0         0         0         0         0
         0         0         0         0         0         0         0         0
         0         0         0         0         0         0         0         0
         0         0         0         0         0         0         0         0
         0         0         0         0         0         0         0         0
         0         0         0         0         0         0         0         0
         0         0         0         0         0         0         0         0
         0         0         0         0         0         0         0         0
         0         0         0         0         0         0         0         0
         0         0         0         0         0         0         0         0
         0         0         0         0         0         0         0         0
         0         0         0         0         0         0         0         0
         0         0         0         0         0         0         0         0
         0         0         0         0         0         0         0         0
         0         0         0         0         0         0         0         0
         0         0         0         0         0         0         0         0
         0         0         0         0         0         0         0         0
         0         0         0         0         0         0         0         0
         0         0         0         0         0         0         0         0
         0         0         0         0         0         0         0         0
         0         0         0         0         0         0         0         0
         0         0         0         0         0         0         0         0
         0         0         0         0         0         0         0         0
         0         0         0         0         0         0         0         0
         0         0         0         0         0         0         0         0
         0         0         0         0         0         0         0         0
         0         0         0         0         0         0         0         0
         0         0         0         0         0         0         0         0
         0         0         0         0         0         0         0         0
         0         0         0         0         0         0         0         0
         0         0         0         0         0         0         0         0
         0         0         0         0         0         0         0         0
         0         0         0         0         0         0         0         0
         0         0         0         0         0         0         0         0
         0         0         0         0         0         0         0         0
         0         0         0         0         0         0         0         0
         0         0         0         0         0         0         0         0
         0         0         0         0         0         0         0         0
         0         0         0         0         0         0         0         0
         0         0         0         0         0         0         0         0
         0         0         0         0         0         0         0         0
         0         0         0         0         0         0         0         0
         0         0         0         0         0         0         0         0
         0         0         0         0         0         0         0         0
         0         0         0         0         0         0         0         0
         0         0         0         0         0         0         0         0
         0         0         0         0         0         0         0         0
         0         0         0         0         0         0         0         0
         0         0         0         0         0         0         0         0
         0         0         0         0         0         0         0         0
         0         0         0         0         0         0         0         0
         0         0         0         0         0         0         0         0
         0         0         0         0         0         0         0         0
         0         0         0         0         0         0         0         0
         0         0         0         0         0         0         0         0
         0         0         0         0         0         0         0         0
         0         0         0         0         0         0         0         0
         0         0         0         0         0         0         0         0
         0         0         0         0         0         0         0         0
         0         0         0         0         0         0         0         0
         0         0         0         0         0         0         0         0
         0         0         0         0         0         0         0         0
         0         0         0         0         0         0         0         0
         0         0         0         0         0         0         0         0
         0         0         0         0         0         0         0         0
         0         0         0         0         0         0         0         0
         0         0         0         0         0         0         0         0
         0         0         0         0         0         0         0         0
         0         0         0         0         0         0         0         0
         0         0         0         0         0         0         0         0
         0         0         0         0         0         0         0         0
         0         0         0         0         0         0         0         0
         0         0         0         0         0         0         0         0
         0         0         0         0         0         0         0         0
         0         0         0         0         0         0         0         0
         0         0         0         0         0         0         0         0
         0         0         0         0         0         0         0         0
         0         0         0         0         0         0         0         0
         0         0         0         0         0         0         0         0
         0         0         0         0         0         0         0         0
         0         0         0         0         0         0         0         0
         0         0         0         0         0         0         0         0
         0         0         0         0         0         0         0         0
         0         0         0         0         0         0         0         0
         0         0         0         0         0         0         0         0
         0         0         0         0         0         0         0         0
         0         0         0         0         0         0         0         0
         0         0         0         0         0         0         0         0
         0         0         0         0         0         0         0         0
         0         0         0         0         0         0         0         0
         0         0         0         0         0         0         0         0
         0         0         0         0         0         0         0         0
         0         0         0         0         0         0         0         0
         0         0         0         0         0         0         0         0
         0         0         0         0         0         0         0         0
         0         0         0         0         0         0         0         0
         0         0         0         0         0         0         0         0
         0         0         0         0         0         0         0         0
         0         0         0         0         0         0         0         0
         0         0         0         0         0         0         0         0
         0         0         0         0         0         0         0         0
         0         0         0         0         0         0         0         0
         0         0         0         0         0         0         0         0
         0         0         0         0         0         0         0         0
         0         0         0         0         0         0         0         0
         0         0         0         0         0         0         0         0
         0         0         0         0         0         0         0         0
         0         0         0         0         0         0         0         0
         0         0         0         0         0         0         0         0
         0         0         0         0         0         0         0         0
         0         0         0         0         0         0         0         0
         0         0         0         0         0         0         0         0
         0         0         0         0         0         0         0         0
         0         0         0         0         0         0         0         0
         0         0         0         0         0         0         0         0
         0         0         0         0         0         0         0         0
         0         0         0         0         0         0         0         0
         0         0         0         0         0         0         0         0
         0         0         0         0         0         0         0         0
         0         0         0         0         0         0         0         0
         0         0         0         0         0         0         0         0
         0         0         0         0         0         0         0         0
         0         0         0         0         0         0         0         0
         0         0         0         0         0         0         0         0
         0         0         0         0         0         0         0         0
         0         0         0         0         0         0         0         0
         0         0         0         0         0         0         0         0
         0         0         0         0         0         0         0         0
         0         0         0         0         0         0         0         0
         0         0         0         0         0         0         0         0
         0         0         0         0         0         0         0         0
         0         0         0         0         0         0         0         0
         0         0         0         0         0         0         0         0
         0         0         0         0         0         0         0         0
         0         0         0         0         0         0         0         0
         0         0         0         0         0         0         0         0
         0         0         0         0         0         0         0         0
         0         0         0         0         0         0         0         0
         0         0         0         0         0         0         0         0
         0         0         0         0         0         0         0         0
         0         0         0         0         0         0         0         0
         0         0         0         0         0         0         0         0
         0         0         0         0         0         0         0         0
         0         0         0         0         0         0         0         0
         0         0         0         0         0         0         0         0
         0         0         0         0         0         0         0         0
         0         0         0         0         0         0         0         0
         0         0         0         0         0         0         0         0
         0         0         0         0         0         0         0         0
         0         0         0         0         0         0         0         0
         0         0         0         0         0         0         0         0
         0         0         0         0         0         0         0         0
         0         0         0         0         0         0         0         0
         0         0         0         0         0         0         0         0
         0         0         0         0         0         0         0         0
         0         0         0         0         0         0         0         0
         0         0         0         0         0         0         0         0
         0         0         0         0         0         0         0         0
         0         0         0         0         0         0         0         0
         0         0         0         0         0         0         0         0
         0         0         0         0         0         0         0         0
         0         0         0         0         0         0         0         0
         0         0         0         0         0         0         0         0
         0         0         0         0         0         0         0         0
         0         0         0         0         0         0         0         0
         0         0         0         0         0         0         0         0
         0         0         0         0         0         0         0         0
         0         0         0         0         0         0         0         0
         0         0         0         0         0         0         0         0
         0         0         0         0         0         0         0         0
         0         0         0         0         0         0         0         0
         0         0         0         0         0         0         0         0
         0         0         0         0         0         0         0         0
         0         0         0         0         0         0         0         0
         0         0         0         0         0         0         0         0
         0         0         0         0         0         0         0         0
         0         0         0         0         0         0         0         0
         0         0         0         0         0         0         0         0
         0         0         0         0         0         0         0         0
         0         0         0         0         0         0         0         0
         0         0         0         0         0         0         0         0
         0         0         0         0         0         0         0         0
         0         0         0         0         0         0         0         0
         0         0         0         0         0         0         0         0
         0         0         0         0         0         0         0         0
         0         0         0         0         0         0         0         0
         0         0         0         0         0         0         0         0
         0         0         0         0         0         0         0         0
         0         0         0         0         0         0         0         0
         0         0         0         0         0         0         0         0
         0         0         0         0         0         0         0         0
         0         0         0         0         0         0         0         0
         0         0         0         0         0         0         0         0
         0         0         0         0         0         0         0         0
         0         0         0         0         0         0         0         0
         0         0         0         0         0         0         0         0
         0         0         0         0         0         0         0         0
         0         0         0         0         0         0         0         0
         0         0         0         0         0         0         0         0
         0         0         0         0         0         0         0         0
         0         0         0         0         0         0         0         0
         0         0         0         0         0         0         0         0
         0         0         0         0         0         0         0         0
         0         0         0         0         0         0         0         0
         0         0         0         0         0         0         0         0
         0         0         0         0         0         0         0         0
         0         0         0         0         0         0         0         0
         0         0         0         0         0         0         0         0
         0         0         0         0         0         0         0         0
         0         0         0         0         0         0         0         0
         0         0         0         0         0         0         0         0
         0         0         0         0         0         0         0         0
         0         0         0         0         0         0         0         0
         0         0         0         0         0         0         0         0
         0         0         0         0         0         0         0         0
         0         0         0         0         0         0         0         0
         0         0         0         0         0         0         0         0
         0         0         0         0         0         0         0         0
         0         0         0         0         0         0         0         0
         0         0         0         0         0         0         0         0
         0         0         0         0         0         0         0         0
         0         0         0         0         0         0         0         0
         0         0         0         0         0         0         0         0
         0         0         0         0         0         0         0         0
         0         0         0         0         0         0         0         0
         0         0         0         0         0         0         0         0
         0         0         0         0         0         0         0         0
         0         0         0         0         0         0         0         0
         0         0         0         0         0         0         0         0
         0         0         0         0         0         0         0         0
         0         0         0         0         0         0         0         0
         0         0         0         0         0         0         0         0
         0         0         0         0         0         0         0         0
         0         0         0         0         0         0         0         0
         0         0         0         0         0         0         0         0
         0         0         0         0         0         0         0         0
         0         0         0         0         0         0         0         0
         0         0         0         0         0         0         0         0
         0         0         0         0         0         0         0         0
         0         0         0         0         0         0         0         0
         0         0         0         0         0         0         0         0
         0         0         0         0         0         0         0         0
         0         0         0         0         0         0         0         0
         0         0         0         0         0         0         0         0
         0         0         0         0         0         0         0         0
         0         0         0         0         0         0         0         0
         0         0         0         0         0         0         0         0
         0         0         0         0         0         0         0         0
         0         0         0         0         0         0         0         0
         0         0         0         0         0         0         0         0
         0         0         0         0         0         0         0         0
         0         0         0         0         0         0         0         0
         0         0         0         0         0         0         0         0
         0         0         0         0         0         0         0         0
         0         0         0         0         0         0         0         0
         0         0         0         0         0         0         0         0
         0         0         0         0         0         0         0         0
         0         0         0         0         0         0         0         0
         0         0         0         0         0         0         0         0
         0         0         0         0         0         0         0         0
         0         0         0         0         0         0         0         0
         0         0         0         0         0         0         0         0
         0         0         0         0         0         0         0         0
         0         0         0         0         0         0         0         0
         0         0         0         0         0         0         0         0
         0         0         0         0         0         0         0         0
         0         0         0         0         0         0         0         0
         0         0         0         0         0         0         0         0
         0         0         0         0         0         0         0         0
         0         0         0         0         0         0         0         0
         0         0         0         0         0         0         0         0
         0         0         0         0         0         0         0         0
         0         0         0         0         0         0         0         0
         0         0         0         0         0         0         0         0
         0         0         0         0         0         0         0         0
         0         0         0         0         0         0         0         0
         0         0         0         0         0         0         0         0
         0         0         0         0         0         0         0         0
         0         0         0         0         0         0         0         0
         0         0         0         0         0         0         0         0
         0         0         0         0         0         0         0         0
         0         0         0         0         0         0         0         0
         0         0         0         0         0         0         0         0
         0         0         0         0         0         0         0         0
         0         0         0         0         0         0         0         0
         0         0         0         0         0         0         0         0
         0         0         0         0         0         0         0         0
         0         0         0         0         0         0         0         0
         0         0         0         0         0         0         0         0
         0         0         0         0         0         0         0         0
         0         0         0         0         0         0         0         0
         0         0         0         0         0         0         0         0
         0         0         0         0         0         0         0         0
         0         0         0         0         0         0         0         0
         0         0         0         0         0         0         0         0
         0         0         0         0         0         0         0         0
         0         0         0         0         0         0         0         0
         0         0         0         0         0         0         0         0
         0         0         0         0         0         0         0         0
         0         0         0         0         0         0         0         0
         0         0         0         0         0         0         0         0
         0         0         0         0         0         0         0         0
         0         0         0         0         0         0         0         0
         0         0         0         0         0         0         0         0
         0         0         0         0         0         0         0         0
         0         0         0         0         0         0         0         0
         0         0         0         0         0         0         0         0
         0         0         0         0         0         0         0         0
         0         0         0         0         0         0         0         0
         0         0         0         0         0         0         0         0
         0         0         0         0         0         0         0         0
         0         0         0         0         0         0         0         0
         0         0         0         0         0         0         0         0
         0         0         0         0         0         0         0         0
         0         0         0         0         0         0         0         0
         0         0         0         0         0         0         0         0
         0         0         0         0         0         0         0         0
         0         0         0         0         0         0         0         0
         0         0         0         0         0         0         0         0
         0         0         0         0         0         0         0         0
         0         0         0         0         0         0         0         0
         0         0         0         0         0         0         0         0
         0         0         0         0         0         0         0         0
         0         0         0         0         0         0         0         0
         0         0         0         0         0         0         0         0
         0         0         0         0         0         0         0         0
         0         0         0         0         0         0         0         0
         0         0         0         0         0         0         0         0
         0         0         0         0         0         0         0         0
         0         0         0         0         0         0         0         0
         0         0         0         0         0         0         0         0
         0         0         0         0         0         0         0         0
         0         0         0         0         0         0         0         0
         0         0         0         0         0         0         0         0
         0         0         0         0         0         0         0         0
         0         0         0         0         0         0         0         0
         0         0         0         0         0         0         0         0
         0         0         0         0         0         0         0         0
         0         0         0         0         0         0         0         0
         0         0         0         0         0         0         0         0
         0         0         0         0         0         0         0         0
         0         0         0         0         0         0         0         0
         0         0         0         0         0         0         0         0
         0         0         0         0         0         0         0         0
         0         0         0         0         0         0         0         0
         0         0         0         0         0         0         0         0
         0         0         0         0         0         0         0         0
         0         0         0         0         0         0         0         0
         0         0         0         0         0         0         0         0
         0         0         0         0         0         0         0         0
         0         0         0         0         0         0         0         0
         0         0         0         0         0         0         0         0
         0         0         0         0         0         0         0         0
         0         0         0         0         0         0         0         0
         0         0         0         0         0         0         0         0
         0         0         0         0         0         0         0         0
         0         0         0         0         0         0         0         0
         0         0         0         0         0         0         0         0
         0         0         0         0         0         0         0         0
         0         0         0         0         0         0         0         0
         0         0         0         0         0         0         0         0
         0         0         0         0         0         0         0         0
         0         0         0         0         0         0         0         0
         0         0         0         0         0         0         0         0
         0         0         0         0         0         0         0         0
         0         0         0         0         0         0         0         0
         0         0         0         0         0         0         0         0
         0         0         0         0         0         0         0         0
         0         0         0         0         0         0         0         0
         0         0         0         0         0         0         0         0
         0         0         0         0         0         0         0         0
         0         0         0         0         0         0         0         0
         0         0         0         0         0         0         0         0
         0         0         0         0         0         0         0         0
         0         0         0         0         0         0         0         0
         0         0         0         0         0         0         0         0
         0         0         0         0         0         0         0         0
         0         0         0         0         0         0         0         0
         0         0         0         0         0         0         0         0
         0         0         0         0         0         0         0         0
         0         0         0         0         0         0         0         0
         0         0         0         0         0         0         0         0
         0         0         0         0         0         0         0         0
         0         0         0         0         0         0         0         0
         0         0         0         0         0         0         0         0
         0         0         0         0         0         0         0         0
         0         0         0         0         0         0         0         0
         0         0         0         0         0         0         0         0
         0         0         0         0         0         0         0         0
         0         0         0         0         0         0         0         0
         0         0         0         0         0         0         0         0
         0         0         0         0         0         0         0         0
         0         0         0         0         0         0         0         0
         0         0         0         0         0         0         0         0
         0         0         0         0         0         0         0         0
         0         0         0         0         0         0         0         0
         0         0         0         0         0         0         0         0
         0         0         0         0         0         0         0         0
         0         0         0         0         0         0         0         0
         0         0         0         0         0         0         0         0
         0         0         0         0         0         0         0         0
         0         0         0         0         0         0         0         0
         0         0         0         0         0         0         0         0
         0         0         0         0         0         0         0         0
         0         0         0         0         0         0         0         0
         0         0         0         0         0         0         0         0
         0         0         0         0         0         0         0         0
         0         0         0         0         0         0         0         0
         0         0         0         0         0         0         0         0
         0         0         0         0         0         0         0         0
         0         0         0         0         0         0         0         0
         0         0         0         0         0         0         0         0
         0         0         0         0         0         0         0         0
         0         0         0         0         0         0         0         0
         0         0         0         0         0         0         0         0
         0         0         0         0         0         0         0         0
         0         0         0         0         0         0         0         0
         0         0         0         0         0         0         0         0
         0         0         0         0         0         0         0         0
         0         0         0         0         0         0         0         0
         0         0         0         0         0         0         0         0
         0         0         0         0         0         0         0         0
         0         0         0         0         0         0         0         0
         0         0         0         0         0         0         0         0
         0         0         0         0         0         0         0         0
         0         0         0         0         0         0         0         0
         0         0         0         0         0         0         0         0
         0         0         0         0         0         0         0         0
         0         0         0         0         0         0         0         0
         0         0         0         0         0         0         0         0
         0         0         0         0         0         0         0         0
         0         0         0         0         0         0         0         0
         0         0         0         0         0         0         0         0
         0         0         0         0         0         0         0         0
         0         0         0         0         0         0         0         0
         0         0         0         0         0         0         0         0
         0         0         0         0         0         0         0         0
         0         0         0         0         0         0         0         0
         0         0         0         0         0         0         0         0
         0         0         0         0         0         0         0         0
         0         0         0         0         0         0         0         0
         0         0         0         0         0         0         0         0
         0         0         0         0         0         0         0         0
         0         0         0         0         0         0         0         0
         0         0         0         0         0         0         0         0
         0         0         0         0         0         0         0         0
         0         0         0         0         0         0         0         0
         0         0         0         0         0         0         0         0
         0         0         0         0         0         0         0         0
         0         0         0         0         0         0         0         0
         0         0         0         0         0         0         0         0
         0         0         0         0         0         0         0         0
         0         0         0         0         0         0         0         0
         0         0         0         0         0         0         0         0
         0         0         0         0         0         0         0         0
         0         0         0         0         0         0         0         0
         0         0         0         0         0         0         0         0
         0         0         0         0         0         0         0         0
         0         0         0         0         0         0         0         0
         0         0         0         0         0         0         0         0
         0         0         0         0         0         0         0         0
         0         0         0         0         0         0         0         0
         0         0         0         0         0         0         0         0
         0         0         0         0         0         0         0         0
         0         0         0         0         0         0         0         0
         0         0         0         0         0         0         0         0
         0         0         0         0         0         0         0         0
         0         0         0         0         0         0         0         0
         0         0         0         0         0         0         0         0
         0         0         0         0         0         0         0         0
         0         0         0         0         0         0         0         0
         0         0         0         0         0         0         0         0
         0         0         0         0         0         0         0         0
         0         0         0         0         0         0         0         0
         0         0         0         0         0         0         0         0
         0         0         0         0         0         0         0         0
         0         0         0         0         0         0         0         0
         0         0         0         0         0         0         0         0
         0         0         0         0         0         0         0         0
         0         0         0         0         0         0         0         0
         0         0         0         0         0         0         0         0
         0         0         0         0         0         0         0         0
         0         0         0         0         0         0         0         0
         0         0         0         0         0         0         0         0
         0         0         0         0         0         0         0         0
         0         0         0         0         0         0         0         0
         0         0         0         0         0         0         0         0
         0         0         0         0         0         0         0         0
         0         0         0         0         0         0         0         0
         0         0         0         0         0         0         0         0
         0         0         0         0         0         0         0         0
         0         0         0         0         0         0         0         0
         0         0         0         0         0         0         0         0
         0         0         0         0         0         0         0         0
         0         0         0         0         0         0         0         0
         0         0         0         0         0         0         0         0
         0         0         0         0         0         0         0         0
         0         0         0         0         0         0         0         0
         0         0         0         0         0         0         0         0
         0         0         0         0         0         0         0         0
         0         0         0         0         0         0         0         0
         0         0         0         0         0         0         0         0
         0         0         0         0         0         0         0         0
         0         0         0         0         0         0         0         0
         0         0         0         0         0         0         0         0
         0         0         0         0         0         0         0         0
         0         0         0         0         0         0         0         0
         0         0         0         0         0         0         0         0
         0         0         0         0         0         0         0         0
         0         0         0         0         0         0         0         0
         0         0         0         0         0         0         0         0
         0         0         0         0         0         0         0         0
         0         0         0         0         0         0         0         0
         0         0         0         0         0         0         0         0
         0         0         0         0         0         0         0         0
         0         0         0         0         0         0         0         0
         0         0         0         0         0         0         0         0
         0         0         0         0         0         0         0         0
         0         0         0         0         0         0         0         0
         0         0         0         0         0         0         0         0
         0         0         0         0         0         0         0         0
         0         0         0         0         0         0         0         0
         0         0         0         0         0         0         0         0
         0         0         0         0         0         0         0         0
         0         0         0         0         0         0         0         0
         0         0         0         0         0         0         0         0
         0         0         0         0         0         0         0         0
         0         0         0         0         0         0         0         0
         0         0         0         0         0         0         0         0
         0         0         0         0         0         0         0         0
         0         0         0         0         0         0         0         0
         0         0         0         0         0         0         0         0
         0         0         0         0         0         0         0         0
         0         0         0         0         0         0         0         0
         0         0         0         0         0         0         0         0
         0         0         0         0         0         0         0         0
         0         0         0         0         0         0         0         0
         0         0         0         0         0         0         0         0
         0         0         0         0         0         0         0         0
         0         0         0         0         0         0         0         0
         0         0         0         0         0         0         0         0
         0         0         0         0         0         0         0         0
         0         0         0         0         0         0         0         0
         0         0         0         0         0         0         0         0
         0         0         0         0         0         0         0         0
         0         0         0         0         0         0         0         0
         0         0         0         0         0         0         0         0
         0         0         0         0         0         0         0         0
         0         0         0         0         0         0         0         0
         0         0         0         0         0         0         0         0
         0         0         0         0         0         0         0         0
         0         0         0         0         0         0         0         0
         0         0         0         0         0         0         0         0
         0         0         0         0         0         0         0         0
         0         0         0         0         0         0         0         0
         0         0         0         0         0         0         0         0
         0         0         0         0         0         0         0         0
         0         0         0         0         0         0         0         0
         0         0         0         0         0         0         0         0
         0         0         0         0         0         0         0         0
         0         0         0         0         0         0         0         0
         0         0         0         0         0         0         0         0
         0         0         0         0         0         0         0         0
         0         0         0         0         0         0         0         0
         0         0         0         0         0         0         0         0
         0         0         0         0         0         0         0         0
         0         0         0         0         0         0         0         0
         0         0         0         0         0         0         0         0
         0         0         0         0         0         0         0         0
         0         0         0         0         0         0         0         0
         0         0         0         0         0         0         0         0
         0         0         0         0         0         0         0         0
         0         0         0         0         0         0         0         0
         0         0         0         0         0         0         0         0
         0         0         0         0         0         0         0         0
         0         0         0         0         0         0         0         0
         0         0         0         0         0         0         0         0
         0         0         0         0         0         0         0         0
         0         0         0         0         0         0         0         0
         0         0         0         0         0         0         0         0
         0         0         0         0         0         0         0         0
         0         0         0         0         0         0         0         0
         0         0         0         0         0         0         0         0
         0         0         0         0         0         0         0         0
         0         0         0         0         0         0         0         0
         0         0         0         0         0         0         0         0
         0         0         0         0         0         0         0         0
         0         0         0         0         0         0         0         0
         0         0         0         0         0         0         0         0
         0         0         0         0         0         0         0         0
         0         0         0         0         0         0         0         0
         0         0         0         0         0         0         0         0
         0         0         0         0         0         0         0         0
         0         0         0         0         0         0         0         0
         0         0         0         0         0         0         0         0
         0         0         0         0         0         0         0         0
         0         0         0         0         0         0         0         0
         0         0         0         0         0         0         0         0
         0         0         0         0         0         0         0         0
         0         0         0         0         0         0         0         0
         0         0         0         0         0         0         0         0
         0         0         0         0         0         0         0         0
         0         0         0         0         0         0         0         0
         0         0         0         0         0         0         0         0
         0         0         0         0         0         0         0         0
         0         0         0         0         0         0         0         0
         0         0         0         0         0         0         0         0
         0         0         0         0         0         0         0         0
         0         0         0         0         0         0         0         0
         0         0         0         0         0         0         0         0
         0         0         0         0         0         0         0         0
         0         0         0         0         0         0         0         0
         0         0         0         0         0         0         0         0
         0         0         0         0         0         0         0         0
         0         0         0         0         0         0         0         0
         0         0         0         0         0         0         0         0
         0         0         0         0         0         0         0         0
         0         0         0         0         0         0         0         0
         0         0         0         0         0         0         0         0
         0         0         0         0         0         0         0         0
         0         0         0         0         0         0         0         0
         0         0         0         0         0         0         0         0
         0         0         0         0         0         0         0         0
         0         0         0         0         0         0         0         0
         0         0         0         0         0         0         0         0
         0         0         0         0         0         0         0         0
         0         0         0         0         0         0         0         0
         0         0         0         0         0         0         0         0
         0         0         0         0         0         0         0         0
         0         0         0         0         0         0         0         0
         0         0         0         0         0         0         0         0
         0         0         0         0         0         0         0         0
         0         0         0         0         0         0         0         0
         0         0         0         0         0         0         0         0
         0         0         0         0         0         0         0         0
         0         0         0         0         0         0         0         0
         0         0         0         0         0         0         0         0
         0         0         0         0         0         0         0         0
         0         0         0         0         0         0         0         0
         0         0         0         0         0         0         0         0
         0         0         0         0         0         0         0         0
         0         0         0         0         0         0         0         0
         0         0         0         0         0         0         0         0
         0         0         0         0         0         0         0         0
         0         0         0         0         0         0         0         0
         0         0         0         0         0         0         0         0
         0         0         0         0         0         0         0         0
         0         0         0         0         0         0         0         0
         0         0         0         0         0         0         0         0
         0         0         0         0         0         0         0         0
         0         0         0         0         0         0         0         0
         0         0         0         0         0         0         0         0
         0         0         0         0         0         0         0         0
         0         0         0         0         0         0         0         0
         0         0         0         0         0         0         0         0
         0         0         0         0         0         0         0         0
         0         0         0         0         0         0         0         0
         0         0         0         0         0         0         0         0
         0         0         0         0         0         0         0         0
         0         0         0         0         0         0         0         0
         0         0         0         0         0         0         0         0
         0         0         0         0         0         0         0         0
         0         0         0         0         0         0         0         0
         0         0         0         0         0         0         0         0
         0         0         0         0         0         0         0         0
         0         0         0         0         0         0         0         0
         0         0         0         0         0         0         0         0
         0         0         0         0         0         0         0         0
         0         0         0         0         0         0         0         0
         0         0         0         0         0         0         0         0
         0         0         0         0         0         0         0         0
         0         0         0         0         0         0         0         0
         0         0         0         0         0         0         0         0
         0         0         0         0         0         0         0         0
         0         0         0         0         0         0         0         0
         0         0         0         0         0         0         0         0
         0         0         0         0         0         0         0         0
         0         0         0         0         0         0         0         0
         0         0         0         0         0         0         0         0
         0         0         0         0         0         0         0         0
         0         0         0         0         0         0         0         0
         0         0         0         0         0         0         0         0
         0         0         0         0         0         0         0         0
         0         0         0         0         0         0         0         0
         0         0         0         0         0         0         0         0
         0         0         0         0         0         0         0         0
         0         0         0         0         0         0         0         0
         0         0         0         0         0         0         0         0
         0         0         0         0         0         0         0         0
         0         0         0         0         0         0         0         0
         0         0         0         0         0         0         0         0
         0         0         0         0         0         0         0         0
         0         0         0         0         0         0         0         0
         0         0         0         0         0         0         0         0
         0         0         0         0         0         0         0         0
         0         0         0         0         0         0         0         0
         0         0         0         0         0         0         0         0
         0         0         0         0         0         0         0         0
         0         0         0         0         0         0         0         0
         0         0         0         0         0         0         0         0
         0         0         0         0         0         0         0         0
         0         0         0         0         0         0         0         0
         0         0         0         0         0         0         0         0
         0         0         0         0         0         0         0         0
         0         0         0         0         0         0         0         0
         0         0         0         0         0         0         0         0
         0         0         0         0         0         0         0         0
         0         0         0         0         0         0         0         0
         0         0         0         0         0         0         0         0
         0         0         0         0         0         0         0         0
         0         0         0         0         0         0         0         0
         0         0         0         0         0         0         0         0
         0         0         0         0         0         0         0         0
         0         0         0         0         0         0         0         0
         0         0         0         0         0         0         0         0
         0         0         0         0         0         0         0         0
         0         0         0         0         0         0         0         0
         0         0         0         0         0         0         0         0
         0         0         0         0         0         0         0         0
         0         0         0         0         0         0         0         0
         0         0         0         0         0         0         0         0
         0         0         0         0         0         0         0         0
         0         0         0         0         0         0         0         0
         0         0         0         0         0         0         0         0
         0         0         0         0         0         0         0         0
         0         0         0         0         0         0         0         0
         0         0         0         0         0         0         0         0
         0         0         0         0         0         0         0         0
         0         0         0         0         0         0         0         0
         0         0         0         0         0         0         0         0
         0         0         0         0         0         0         0         0
         0         0         0         0         0         0         0         0
         0         0         0         0         0         0         0         0
         0         0         0         0         0         0         0         0
         0         0         0         0         0         0         0         0
         0         0         0         0         0         0         0         0
         0         0         0         0         0         0         0         0
         0         0         0         0         0         0         0         0
         0         0         0         0         0         0         0         0
         0         0         0         0         0         0         0         0
         0         0         0         0         0         0         0         0
         0         0         0         0         0         0         0         0
         0         0         0         0         0         0         0         0
         0         0         0         0         0         0         0         0
         0         0         0         0         0         0         0         0
         0         0         0         0         0         0         0         0
         0         0         0         0         0         0         0         0
         0         0         0         0         0         0         0         0
         0         0         0         0         0         0         0         0
         0         0         0         0         0         0         0         0
         0         0         0         0         0         0         0         0
         0         0         0         0         0         0         0         0
         0         0         0         0         0         0         0         0
         0         0         0         0         0         0         0         0
         0         0         0         0         0         0         0         0
         0         0         0         0         0         0         0         0
         0         0         0         0         0         0         0         0
         0         0         0         0         0         0         0         0
         0         0         0         0         0         0         0         0
         0         0         0         0         0         0         0         0
         0         0         0         0         0         0         0         0
         0         0         0         0         0         0         0         0
         0         0         0         0         0         0         0         0
         0         0         0         0         0         0         0         0
         0         0         0         0         0         0         0         0
         0         0         0         0         0         0         0         0
         0         0         0         0         0         0         0         0
         0         0         0         0         0         0         0         0
         0         0         0         0         0         0         0         0
         0         0         0         0         0         0         0         0
         0         0         0         0         0         0         0         0
         0         0         0         0         0         0         0         0
         0         0         0         0         0         0         0         0
         0         0         0         0         0         0         0         0
         0         0         0         0         0         0         0         0
         0         0         0         0         0         0         0         0
         0         0         0         0         0         0         0         0
         0         0         0         0         0         0         0         0
         0         0         0         0         0         0         0         0
         0         0         0         0         0         0         0         0
         0         0         0         0         0         0         0         0
         0         0         0         0         0         0         0         0
         0         0         0         0         0         0         0         0
         0         0         0         0         0         0         0         0
         0         0         0         0         0         0         0         0
         0         0         0         0         0         0         0         0
         0         0         0         0         0         0         0         0
         0         0         0         0         0         0         0         0
         0         0         0         0         0         0         0         0
         0         0         0         0         0         0         0         0
         0         0         0         0         0         0         0         0
         0         0         0         0         0         0         0         0
         0         0         0         0         0         0         0         0
         0         0         0         0         0         0         0         0
         0         0         0         0         0         0         0         0
         0         0         0         0         0         0         0         0
         0         0         0         0         0         0         0         0
         0         0         0         0         0         0         0         0
         0         0         0         0         0         0         0         0
         0         0         0         0         0         0         0         0
         0         0         0         0         0         0         0         0
         0         0         0         0         0         0         0         0
         0         0         0         0         0         0         0         0
         0         0         0         0         0         0         0         0
         0         0         0         0         0         0         0         0
         0         0         0         0         0         0         0         0
         0         0         0         0         0         0         0         0
         0         0         0         0         0         0         0         0
         0         0         0         0         0         0         0         0
         0         0         0         0         0         0         0         0
         0         0         0         0         0         0         0         0
         0         0         0         0         0         0         0         0
         0         0         0         0         0         0         0         0
         0         0         0         0         0         0         0         0
         0         0         0         0         0         0         0         0
         0         0         0         0         0         0         0         0
         0         0         0         0         0         0         0         0
         0         0         0         0         0         0         0         0
         0         0         0         0         0         0         0         0
         0         0         0         0         0         0         0         0
         0         0         0         0         0         0         0         0
         0         0         0         0         0         0         0         0
         0         0         0         0         0         0         0         0
         0         0         0         0         0         0         0         0
         0         0         0         0         0         0         0         0
         0         0         0         0         0         0         0         0
         0         0         0         0         0         0         0         0
         0         0         0         0         0         0         0         0
         0         0         0         0         0         0         0         0
         0         0         0         0         0         0         0         0
         0         0         0         0         0         0         0         0
         0         0         0         0         0         0         0         0
         0         0         0         0         0         0         0         0
         0         0         0         0         0         0         0         0
         0         0         0         0         0         0         0         0
         0         0         0         0         0         0         0         0
         0         0         0         0         0         0         0         0
         0         0         0         0         0         0         0         0
         0         0         0         0         0         0         0         0
         0         0         0         0         0         0         0         0
         0         0         0         0         0         0         0         0
         0         0         0         0         0         0         0         0
         0         0         0         0         0         0         0         0
         0         0         0         0         0         0         0         0
         0         0         0         0         0         0         0         0
         0         0         0         0         0         0         0         0
         0         0         0         0         0         0         0         0
         0         0         0         0         0         0         0         0
         0         0         0         0         0         0         0         0
         0         0         0         0         0         0         0         0
         0         0         0         0         0         0         0         0
         0         0         0         0         0         0         0         0
         0         0         0         0         0         0         0         0
         0         0         0         0         0         0         0         0
         0         0         0         0         0         0         0         0
         0         0         0         0         0         0         0         0
         0         0         0         0         0         0         0         0
         0         0         0         0         0         0         0         0
         0         0         0         0         0         0         0         0
         0         0         0         0         0         0         0         0
         0         0         0         0         0         0         0         0
         0         0         0         0         0         0         0         0
         0         0         0         0         0         0         0         0
         0         0         0         0         0         0         0         0
         0         0         0         0         0         0         0         0
         0         0         0         0         0         0         0         0
         0         0         0         0         0         0         0         0
         0         0         0         0         0         0         0         0
         0         0         0         0         0         0         0         0
         0         0         0         0         0         0         0         0
         0         0         0         0         0         0         0         0
         0         0         0         0         0         0         0         0
         0         0         0         0         0         0         0         0
         0         0         0         0         0         0         0         0
         0         0         0         0         0         0         0         0
         0         0         0         0         0         0         0         0
         0         0         0         0         0         0         0         0
         0         0         0         0         0         0         0         0
         0         0         0         0         0         0         0         0
         0         0         0         0         0         0         0         0
         0         0         0         0         0         0         0         0
         0         0         0         0         0         0         0         0
         0         0         0         0         0         0         0         0
         0         0         0         0         0         0         0         0
         0         0         0         0         0         0         0         0
         0         0         0         0         0         0         0         0
         0         0         0         0         0         0         0         0
         0         0         0         0         0         0         0         0
         0         0         0         0         0         0         0         0
         0         0         0         0         0         0         0         0
         0         0         0         0         0         0         0         0
         0         0         0         0         0         0         0         0
         0         0         0         0         0         0         0         0
         0         0         0         0         0         0         0         0
         0         0         0         0         0         0         0         0
         0         0         0         0         0         0         0         0
         0         0         0         0         0         0         0         0
         0         0         0         0         0         0         0         0
         0         0         0         0         0         0         0         0
         0         0         0         0         0         0         0         0
         0         0         0         0         0         0         0         0
         0         0         0         0         0         0         0         0
         0         0         0         0         0         0         0         0
         0         0         0         0         0         0         0         0
         0         0         0         0         0         0         0         0
         0         0         0         0         0         0         0         0
         0         0         0         0         0         0         0         0
         0         0         0         0         0         0         0         0
         0         0         0         0         0         0         0         0
         0         0         0         0         0         0         0         0
         0         0         0         0         0         0         0         0
         0         0         0         0         0         0         0         0
         0         0         0         0         0         0         0         0
         0         0         0         0         0         0         0         0
         0         0         0         0         0         0         0         0
         0         0         0         0         0         0         0         0
         0         0         0         0         0         0         0         0
         0         0         0         0         0         0         0         0
         0         0         0         0         0         0         0         0
         0         0         0         0         0         0         0         0
         0         0         0         0         0         0         0         0
         0         0         0         0         0         0         0         0
         0         0         0         0         0         0         0         0
         0         0         0         0         0         0         0         0
         0         0         0         0         0         0         0         0
         0         0         0         0         0         0         0         0
         0         0         0         0         0         0         0         0
         0         0         0         0         0         0         0         0
         0         0         0         0         0         0         0         0
         0         0         0         0         0         0         0         0
         0         0         0         0         0         0         0         0
         0         0         0         0         0         0         0         0
         0         0         0         0         0         0         0         0
         0         0         0         0         0         0         0         0
         0         0         0         0         0         0         0         0
         0         0         0         0         0         0         0         0
         0         0         0         0         0         0         0         0
         0         0         0         0         0         0         0         0
         0         0         0         0         0         0         0         0
         0         0         0         0         0         0         0         0
         0         0         0         0         0         0         0         0
         0         0         0         0         0         0         0         0
         0         0         0         0         0         0         0         0
         0         0         0         0         0         0         0         0
         0         0         0         0         0         0         0         0
         0         0         0         0         0         0         0         0
         0         0         0         0         0         0         0         0
         0         0         0         0         0         0         0         0
         0         0         0         0         0         0         0         0
         0         0         0         0         0         0         0         0
         0         0         0         0         0         0         0         0
         0         0         0         0         0         0         0         0
         0         0         0         0         0         0         0         0
         0         0         0         0         0         0         0         0
         0         0         0         0         0         0         0         0
         0         0         0         0         0         0         0         0
         0         0         0         0         0         0         0         0
         0         0         0         0         0         0         0         0
         0         0         0         0         0         0         0         0
         0         0         0         0         0         0         0         0
         0         0         0         0         0         0         0         0
         0         0         0         0         0         0         0         0
         0         0         0         0         0         0         0         0
         0         0         0         0         0         0         0         0
         0         0         0         0         0         0         0         0
         0         0         0         0         0         0         0         0
         0         0         0         0         0         0         0         0
         0         0         0         0         0         0         0         0
         0         0         0         0         0         0         0         0
         0         0         0         0         0         0         0         0
         0         0         0         0         0         0         0         0
         0         0         0         0         0         0         0         0
         0         0         0         0         0         0         0         0
         0         0         0         0         0         0         0         0
         0         0         0         0         0         0         0         0
         0         0         0         0         0         0         0         0
         0         0         0         0         0         0         0         0
         0         0         0         0         0         0         0         0
         0         0         0         0         0         0         0         0
         0         0         0         0         0         0         0         0
         0         0         0         0         0         0         0         0
         0         0         0         0         0         0         0         0
         0         0         0         0         0         0         0         0
         0         0         0         0         0         0         0         0
         0         0         0         0         0         0         0         0
         0         0         0         0         0         0         0         0
         0         0         0         0         0         0         0         0
         0         0         0         0         0         0         0         0
         0         0         0         0         0         0         0         0
         0         0         0         0         0         0         0         0
         0         0         0         0         0         0         0         0
         0         0         0         0         0         0         0         0
         0         0         0         0         0         0         0         0
         0         0         0         0         0         0         0         0
         0         0         0         0         0         0         0         0
         0         0         0         0         0         0         0         0
         0         0         0         0         0         0         0         0
         0         0         0         0         0         0         0         0
         0         0         0         0         0         0         0         0
         0         0         0         0         0         0         0         0
         0         0         0         0         0         0         0         0
         0         0         0         0         0         0         0         0
         0         0         0         0         0         0         0         0
         0         0         0         0         0         0         0         0
         0         0         0         0         0         0         0         0
         0         0         0         0         0         0         0         0
         0         0         0         0         0         0         0         0
         0         0         0         0         0         0         0         0
         0         0         0         0         0         0         0         0
         0         0         0         0         0         0         0         0
         0         0         0         0         0         0         0         0
         0         0         0         0         0         0         0         0
         0         0         0         0         0         0         0         0
         0         0         0         0         0         0         0         0
         0         0         0         0         0         0         0         0
         0         0         0         0         0         0         0         0
         0         0         0         0         0         0         0         0
         0         0         0         0         0         0         0         0
         0         0         0         0         0         0         0         0
         0         0         0         0         0         0         0         0
         0         0         0         0         0         0         0         0
         0         0         0         0         0         0         0         0
         0         0         0         0         0         0         0         0
         0         0         0         0         0         0         0         0
         0         0         0         0         0         0         0         0
         0         0         0         0         0         0         0         0
         0         0         0         0         0         0         0         0
         0         0         0         0         0         0         0         0
         0         0         0         0         0         0         0         0
         0         0         0         0         0         0         0         0
         0         0         0         0         0         0         0         0
         0         0         0         0         0         0         0         0
         0         0         0         0         0         0         0         0
         0         0         0         0         0         0         0         0
         0         0         0         0         0         0         0         0
         0         0         0         0         0         0         0         0
         0         0         0         0         0         0         0         0
         0         0         0         0         0         0         0         0
         0         0         0         0         0         0         0         0
         0         0         0         0         0         0         0         0
         0         0         0         0         0         0         0         0
         0         0         0         0         0         0         0         0
         0         0         0         0         0         0         0         0
         0         0         0         0         0         0         0         0
         0         0         0         0         0         0         0         0
         0         0         0         0         0         0         0         0
         0         0         0         0         0         0         0         0
         0         0         0         0         0         0         0         0
         0         0         0         0         0         0         0         0
         0         0         0         0         0         0         0         0
         0         0         0         0         0         0         0         0
         0         0         0         0         0         0         0         0
         0         0         0         0         0         0         0         0
     17240     17239     17241         0         1
     17243     17242     17244         0         1
     17246     17245     17247         0         1
     17249     17248     17250         0         1
     17252     17251     17253         0         1
     17255     17254     17256         0         1
     17258     17257     17259         0         1
     17261     17260     17262         0         1
     17264     17263     17265         0         1
     17267     17266     17268         0         1
     17270     17269     17271         0         1
     17273     17272     17274         0         1
     17276     17275     17277         0         1
     17279     17278     17280         0         1
     17282     17281     17283         0         1
     17285     17284     17286         0         1
     17288     17287     17289         0         1
     17291     17290     17292         0         1
     17294     17293     17295         0         1
     17297     17296     17298         0         1
     17300     17299     17301         0         1
     17303     17302     17304         0         1
     17306     17305     17307         0         1
     17309     17308     17310         0         1
     17312     17311     17313         0         1
     17315     17314     17316         0         1
     17318     17317     17319         0         1
     17321     17320     17322         0         1
     17324     17323     17325         0         1
     17327     17326     17328         0         1
     17330     17329     17331         0         1
     17333     17332     17334         0         1
     17336     17335     17337         0         1
     17339     17338     17340         0         1
     17342     17341     17343         0         1
     17345     17344     17346         0         1
     17348     17347     17349         0         1
     17351     17350     17352         0         1
     17354     17353     17355         0         1
     17357     17356     17358         0         1
     17360     17359     17361         0         1
     17363     17362     17364         0         1
     17366     17365     17367         0         1
     17369     17368     17370         0         1
     17372     17371     17373         0         1
     17375     17374     17376         0         1
     17378     17377     17379         0         1
     17381     17380     17382         0         1
     17384     17383     17385         0         1
     17387     17386     17388         0         1
     17390     17389     17391         0         1
     17393     17392     17394         0         1
     17396     17395     17397         0         1
     17399     17398     17400         0         1
     17402     17401     17403         0         1
     17405     17404     17406         0         1
     17408     17407     17409         0         1
     17411     17410     17412         0         1
     17414     17413     17415         0         1
     17417     17416     17418         0         1
     17420     17419     17421         0         1
     17423     17422     17424         0         1
     17426     17425     17427         0         1
     17429     17428     17430         0         1
     17432     17431     17433         0         1
     17435     17434     17436         0         1
     17438     17437     17439         0         1
     17441     17440     17442         0         1
     17444     17443     17445         0         1
     17447     17446     17448         0         1
     17450     17449     17451         0         1
     17453     17452     17454         0         1
     17456     17455     17457         0         1
     17459     17458     17460         0         1
     17462     17461     17463         0         1
     17465     17464     17466         0         1
     17468     17467     17469         0         1
     17471     17470     17472         0         1
     17474     17473     17475         0         1
     17477     17476     17478         0         1
     17480     17479     17481         0         1
     17483     17482     17484         0         1
     17486     17485     17487         0         1
     17489     17488     17490         0         1
     17492     17491     17493         0         1
     17495     17494     17496         0         1
     17498     17497     17499         0         1
     17501     17500     17502         0         1
     17504     17503     17505         0         1
     17507     17506     17508         0         1
     17510     17509     17511         0         1
     17513     17512     17514         0         1
     17516     17515     17517         0         1
     17519     17518     17520         0         1
     17522     17521     17523         0         1
     17525     17524     17526         0         1
     17528     17527     17529         0         1
     17531     17530     17532         0         1
     17534     17533     17535         0         1
     17537     17536     17538         0         1
     17540     17539     17541         0         1
     17543     17542     17544         0         1
     17546     17545     17547         0         1
     17549     17548     17550         0         1
     17552     17551     17553         0         1
     17555     17554     17556         0         1
     17558     17557     17559         0         1
     17561     17560     17562         0         1
     17564     17563     17565         0         1
     17567     17566     17568         0         1
     17570     17569     17571         0         1
     17573     17572     17574         0         1
     17576     17575     17577         0         1
     17579     17578     17580         0         1
     17582     17581     17583         0         1
     17585     17584     17586         0         1
     17588     17587     17589         0         1
     17591     17590     17592         0         1
     17594     17593     17595         0         1
     17597     17596     17598         0         1
     17600     17599     17601         0         1
     17603     17602     17604         0         1
     17606     17605     17607         0         1
     17609     17608     17610         0         1
     17612     17611     17613         0         1
     17615     17614     17616         0         1
     17618     17617     17619         0         1
     17621     17620     17622         0         1
     17624     17623     17625         0         1
     17627     17626     17628         0         1
     17630     17629     17631         0         1
     17633     17632     17634         0         1
     17636     17635     17637         0         1
     17639     17638     17640         0         1
     17642     17641     17643         0         1
     17645     17644     17646         0         1
     17648     17647     17649         0         1
     17651     17650     17652         0         1
     17654     17653     17655         0         1
     17657     17656     17658         0         1
     17660     17659     17661         0         1
     17663     17662     17664         0         1
     17666     17665     17667         0         1
     17669     17668     17670         0         1
     17672     17671     17673         0         1
     17675     17674     17676         0         1
     17678     17677     17679         0         1
     17681     17680     17682         0         1
     17684     17683     17685         0         1
     17687     17686     17688         0         1
     17690     17689     17691         0         1
     17693     17692     17694         0         1
     17696     17695     17697         0         1
     17699     17698     17700         0         1
     17702     17701     17703         0         1
     17705     17704     17706         0         1
     17708     17707     17709         0         1
     17711     17710     17712         0         1
     17714     17713     17715         0         1
     17717     17716     17718         0         1
     17720     17719     17721         0         1
     17723     17722     17724         0         1
     17726     17725     17727         0         1
     17729     17728     17730         0         1
     17732     17731     17733         0         1
     17735     17734     17736         0         1
     17738     17737     17739         0         1
     17741     17740     17742         0         1
     17744     17743     17745         0         1
     17747     17746     17748         0         1
     17750     17749     17751         0         1
     17753     17752     17754         0         1
     17756     17755     17757         0         1
     17759     17758     17760         0         1
     17762     17761     17763         0         1
     17765     17764     17766         0         1
     17768     17767     17769         0         1
     17771     17770     17772         0         1
     17774     17773     17775         0         1
     17777     17776     17778         0         1
     17780     17779     17781         0         1
     17783     17782     17784         0         1
     17786     17785     17787         0         1
     17789     17788     17790         0         1
     17792     17791     17793         0         1
     17795     17794     17796         0         1
     17798     17797     17799         0         1
     17801     17800     17802         0         1
     17804     17803     17805         0         1
     17807     17806     17808         0         1
     17810     17809     17811         0         1
     17813     17812     17814         0         1
     17816     17815     17817         0         1
     17819     17818     17820         0         1
     17822     17821     17823         0         1
     17825     17824     17826         0         1
     17828     17827     17829         0         1
     17831     17830     17832         0         1
     17834     17833     17835         0         1
     17837     17836     17838         0         1
     17840     17839     17841         0         1
     17843     17842     17844         0         1
     17846     17845     17847         0         1
     17849     17848     17850         0         1
     17852     17851     17853         0         1
     17855     17854     17856         0         1
     17858     17857     17859         0         1
     17861     17860     17862         0         1
     17864     17863     17865         0         1
     17867     17866     17868         0         1
     17870     17869     17871         0         1
     17873     17872     17874         0         1
     17876     17875     17877         0         1
     17879     17878     17880         0         1
     17882     17881     17883         0         1
     17885     17884     17886         0         1
     17888     17887     17889         0         1
     17891     17890     17892         0         1
     17894     17893     17895         0         1
     17897     17896     17898         0         1
     17900     17899     17901         0         1
     17903     17902     17904         0         1
     17906     17905     17907         0         1
     17909     17908     17910         0         1
     17912     17911     17913         0         1
     17915     17914     17916         0         1
     17918     17917     17919         0         1
     17921     17920     17922         0         1
     17924     17923     17925         0         1
     17927     17926     17928         0         1
     17930     17929     17931         0         1
     17933     17932     17934         0         1
     17936     17935     17937         0         1
     17939     17938     17940         0         1
     17942     17941     17943         0         1
     17945     17944     17946         0         1
     17948     17947     17949         0         1
     17951     17950     17952         0         1
     17954     17953     17955         0         1
     17957     17956     17958         0         1
     17960     17959     17961         0         1
     17963     17962     17964         0         1
     17966     17965     17967         0         1
     17969     17968     17970         0         1
     17972     17971     17973         0         1
     17975     17974     17976         0         1
     17978     17977     17979         0         1
     17981     17980     17982         0         1
     17984     17983     17985         0         1
     17987     17986     17988         0         1
     17990     17989     17991         0         1
     17993     17992     17994         0         1
     17996     17995     17997         0         1
     17999     17998     18000         0         1
     18002     18001     18003         0         1
     18005     18004     18006         0         1
     18008     18007     18009         0         1
     18011     18010     18012         0         1
     18014     18013     18015         0         1
     18017     18016     18018         0         1
     18020     18019     18021         0         1
     18023     18022     18024         0         1
     18026     18025     18027         0         1
     18029     18028     18030         0         1
     18032     18031     18033         0         1
     18035     18034     18036         0         1
     18038     18037     18039         0         1
     18041     18040     18042         0         1
     18044     18043     18045         0         1
     18047     18046     18048         0         1
     18050     18049     18051         0         1
     18053     18052     18054         0         1
     18056     18055     18057         0         1
     18059     18058     18060         0         1
     18062     18061     18063         0         1
     18065     18064     18066         0         1
     18068     18067     18069         0         1
     18071     18070     18072         0         1
     18074     18073     18075         0         1
     18077     18076     18078         0         1
     18080     18079     18081         0         1
     18083     18082     18084         0         1
     18086     18085     18087         0         1
     18089     18088     18090         0         1
     18092     18091     18093         0         1
     18095     18094     18096         0         1
     18098     18097     18099         0         1
     18101     18100     18102         0         1
     18104     18103     18105         0         1
     18107     18106     18108         0         1
     18110     18109     18111         0         1
     18113     18112     18114         0         1
     18116     18115     18117         0         1
     18119     18118     18120         0         1
     18122     18121     18123         0         1
     18125     18124     18126         0         1
     18128     18127     18129         0         1
     18131     18130     18132         0         1
     18134     18133     18135         0         1
     18137     18136     18138         0         1
     18140     18139     18141         0         1
     18143     18142     18144         0         1
     18146     18145     18147         0         1
     18149     18148     18150         0         1
     18152     18151     18153         0         1
     18155     18154     18156         0         1
     18158     18157     18159         0         1
     18161     18160     18162         0         1
     18164     18163     18165         0         1
     18167     18166     18168         0         1
     18170     18169     18171         0         1
     18173     18172     18174         0         1
     18176     18175     18177         0         1
     18179     18178     18180         0         1
     18182     18181     18183         0         1
     18185     18184     18186         0         1
     18188     18187     18189         0         1
     18191     18190     18192         0         1
     18194     18193     18195         0         1
     18197     18196     18198         0         1
     18200     18199     18201         0         1
     18203     18202     18204         0         1
     18206     18205     18207         0         1
     18209     18208     18210         0         1
     18212     18211     18213         0         1
     18215     18214     18216         0         1
     18218     18217     18219         0         1
     18221     18220     18222         0         1
     18224     18223     18225         0         1
     18227     18226     18228         0         1
     18230     18229     18231         0         1
     18233     18232     18234         0         1
     18236     18235     18237         0         1
     18239     18238     18240         0         1
     18242     18241     18243         0         1
     18245     18244     18246         0         1
     18248     18247     18249         0         1
     18251     18250     18252         0         1
     18254     18253     18255         0         1
     18257     18256     18258         0         1
     18260     18259     18261         0         1
     18263     18262     18264         0         1
     18266     18265     18267         0         1
     18269     18268     18270         0         1
     18272     18271     18273         0         1
     18275     18274     18276         0         1
     18278     18277     18279         0         1
     18281     18280     18282         0         1
     18284     18283     18285         0         1
     18287     18286     18288         0         1
     18290     18289     18291         0         1
     18293     18292     18294         0         1
     18296     18295     18297         0         1
     18299     18298     18300         0         1
     18302     18301     18303         0         1
     18305     18304     18306         0         1
     18308     18307     18309         0         1
     18311     18310     18312         0         1
     18314     18313     18315         0         1
     18317     18316     18318         0         1
     18320     18319     18321         0         1
     18323     18322     18324         0         1
     18326     18325     18327         0         1
     18329     18328     18330         0         1
     18332     18331     18333         0         1
     18335     18334     18336         0         1
     18338     18337     18339         0         1
     18341     18340     18342         0         1
     18344     18343     18345         0         1
     18347     18346     18348         0         1
     18350     18349     18351         0         1
     18353     18352     18354         0         1
     18356     18355     18357         0         1
     18359     18358     18360         0         1
     18362     18361     18363         0         1
     18365     18364     18366         0         1
     18368     18367     18369         0         1
     18371     18370     18372         0         1
     18374     18373     18375         0         1
     18377     18376     18378         0         1
     18380     18379     18381         0         1
     18383     18382     18384         0         1
     18386     18385     18387         0         1
     18389     18388     18390         0         1
     18392     18391     18393         0         1
     18395     18394     18396         0         1
     18398     18397     18399         0         1
     18401     18400     18402         0         1
     18404     18403     18405         0         1
     18407     18406     18408         0         1
     18410     18409     18411         0         1
     18413     18412     18414         0         1
     18416     18415     18417         0         1
     18419     18418     18420         0         1
     18422     18421     18423         0         1
     18425     18424     18426         0         1
     18428     18427     18429         0         1
     18431     18430     18432         0         1
     18434     18433     18435         0         1
     18437     18436     18438         0         1
     18440     18439     18441         0         1
     18443     18442     18444         0         1
     18446     18445     18447         0         1
     18449     18448     18450         0         1
     18452     18451     18453         0         1
     18455     18454     18456         0         1
     18458     18457     18459         0         1
     18461     18460     18462         0         1
     18464     18463     18465         0         1
     18467     18466     18468         0         1
     18470     18469     18471         0         1
     18473     18472     18474         0         1
     18476     18475     18477         0         1
     18479     18478     18480         0         1
     18482     18481     18483         0         1
     18485     18484     18486         0         1
     18488     18487     18489         0         1
     18491     18490     18492         0         1
     18494     18493     18495         0         1
     18497     18496     18498         0         1
     18500     18499     18501         0         1
     18503     18502     18504         0         1
     18506     18505     18507         0         1
     18509     18508     18510         0         1
     18512     18511     18513         0         1
     18515     18514     18516         0         1
     18518     18517     18519         0         1
     18521     18520     18522         0         1
     18524     18523     18525         0         1
     18527     18526     18528         0         1
     18530     18529     18531         0         1
     18533     18532     18534         0         1
     18536     18535     18537         0         1
     18539     18538     18540         0         1
     18542     18541     18543         0         1
     18545     18544     18546         0         1
     18548     18547     18549         0         1
     18551     18550     18552         0         1
     18554     18553     18555         0         1
     18557     18556     18558         0         1
     18560     18559     18561         0         1
     18563     18562     18564         0         1
     18566     18565     18567         0         1
     18569     18568     18570         0         1
     18572     18571     18573         0         1
     18575     18574     18576         0         1
     18578     18577     18579         0         1
     18581     18580     18582         0         1
     18584     18583     18585         0         1
     18587     18586     18588         0         1
     18590     18589     18591         0         1
     18593     18592     18594         0         1
     18596     18595     18597         0         1
     18599     18598     18600         0         1
     18602     18601     18603         0         1
     18605     18604     18606         0         1
     18608     18607     18609         0         1
     18611     18610     18612         0         1
     18614     18613     18615         0         1
     18617     18616     18618         0         1
     18620     18619     18621         0         1
     18623     18622     18624         0         1
     18626     18625     18627         0         1
     18629     18628     18630         0         1
     18632     18631     18633         0         1
     18635     18634     18636         0         1
     18638     18637     18639         0         1
     18641     18640     18642         0         1
     18644     18643     18645         0         1
     18647     18646     18648         0         1
     18650     18649     18651         0         1
     18653     18652     18654         0         1
     18656     18655     18657         0         1
     18659     18658     18660         0         1
     18662     18661     18663         0         1
     18665     18664     18666         0         1
     18668     18667     18669         0         1
     18671     18670     18672         0         1
     18674     18673     18675         0         1
     18677     18676     18678         0         1
     18680     18679     18681         0         1
     18683     18682     18684         0         1
     18686     18685     18687         0         1
     18689     18688     18690         0         1
     18692     18691     18693         0         1
     18695     18694     18696         0         1
     18698     18697     18699         0         1
     18701     18700     18702         0         1
     18704     18703     18705         0         1
     18707     18706     18708         0         1
     18710     18709     18711         0         1
     18713     18712     18714         0         1
     18716     18715     18717         0         1
     18719     18718     18720         0         1
     18722     18721     18723         0         1
     18725     18724     18726         0         1
     18728     18727     18729         0         1
     18731     18730     18732         0         1
     18734     18733     18735         0         1
     18737     18736     18738         0         1
     18740     18739     18741         0         1
     18743     18742     18744         0         1
     18746     18745     18747         0         1
     18749     18748     18750         0         1
     18752     18751     18753         0         1
     18755     18754     18756         0         1
     18758     18757     18759         0         1
     18761     18760     18762         0         1
     18764     18763     18765         0         1
     18767     18766     18768         0         1
     18770     18769     18771         0         1
     18773     18772     18774         0         1
     18776     18775     18777         0         1
     18779     18778     18780         0         1
     18782     18781     18783         0         1
     18785     18784     18786         0         1
     18788     18787     18789         0         1
     18791     18790     18792         0         1
     18794     18793     18795         0         1
     18797     18796     18798         0         1
     18800     18799     18801         0         1
     18803     18802     18804         0         1
     18806     18805     18807         0         1
     18809     18808     18810         0         1
     18812     18811     18813         0         1
     18815     18814     18816         0         1
     18818     18817     18819         0         1
     18821     18820     18822         0         1
     18824     18823     18825         0         1
     18827     18826     18828         0         1
     18830     18829     18831         0         1
     18833     18832     18834         0         1
     18836     18835     18837         0         1
     18839     18838     18840         0         1
     18842     18841     18843         0         1
     18845     18844     18846         0         1
     18848     18847     18849         0         1
     18851     18850     18852         0         1
     18854     18853     18855         0         1
     18857     18856     18858         0         1
     18860     18859     18861         0         1
     18863     18862     18864         0         1
     18866     18865     18867         0         1
     18869     18868     18870         0         1
     18872     18871     18873         0         1
     18875     18874     18876         0         1
     18878     18877     18879         0         1
     18881     18880     18882         0         1
     18884     18883     18885         0         1
     18887     18886     18888         0         1
     18890     18889     18891         0         1
     18893     18892     18894         0         1
     18896     18895     18897         0         1
     18899     18898     18900         0         1
     18902     18901     18903         0         1
     18905     18904     18906         0         1
     18908     18907     18909         0         1
     18911     18910     18912         0         1
     18914     18913     18915         0         1
     18917     18916     18918         0         1
     18920     18919     18921         0         1
     18923     18922     18924         0         1
     18926     18925     18927         0         1
     18929     18928     18930         0         1
     18932     18931     18933         0         1
     18935     18934     18936         0         1
     18938     18937     18939         0         1
     18941     18940     18942         0         1
     18944     18943     18945         0         1
     18947     18946     18948         0         1
     18950     18949     18951         0         1
     18953     18952     18954         0         1
     18956     18955     18957         0         1
     18959     18958     18960         0         1
     18962     18961     18963         0         1
     18965     18964     18966         0         1
     18968     18967     18969         0         1
     18971     18970     18972         0         1
     18974     18973     18975         0         1
     18977     18976     18978         0         1
     18980     18979     18981         0         1
     18983     18982     18984         0         1
     18986     18985     18987         0         1
     18989     18988     18990         0         1
     18992     18991     18993         0         1
     18995     18994     18996         0         1
     18998     18997     18999         0         1
     19001     19000     19002         0         1
     19004     19003     19005         0         1
     19007     19006     19008         0         1
     19010     19009     19011         0         1
     19013     19012     19014         0         1
     19016     19015     19017         0         1
     19019     19018     19020         0         1
     19022     19021     19023         0         1
     19025     19024     19026         0         1
     19028     19027     19029         0         1
     19031     19030     19032         0         1
     19034     19033     19035         0         1
     19037     19036     19038         0         1
     19040     19039     19041         0         1
     19043     19042     19044         0         1
     19046     19045     19047         0         1
     19049     19048     19050         0         1
     19052     19051     19053         0         1
     19055     19054     19056         0         1
     19058     19057     19059         0         1
     19061     19060     19062         0         1
     19064     19063     19065         0         1
     19067     19066     19068         0         1
     19070     19069     19071         0         1
     19073     19072     19074         0         1
     19076     19075     19077         0         1
     19079     19078     19080         0         1
     19082     19081     19083         0         1
     19085     19084     19086         0         1
     19088     19087     19089         0         1
     19091     19090     19092         0         1
     19094     19093     19095         0         1
     19097     19096     19098         0         1
     19100     19099     19101         0         1
     19103     19102     19104         0         1
     19106     19105     19107         0         1
     19109     19108     19110         0         1
     19112     19111     19113         0         1
     19115     19114     19116         0         1
     19118     19117     19119         0         1
     19121     19120     19122         0         1
     19124     19123     19125         0         1
     19127     19126     19128         0         1
     19130     19129     19131         0         1
     19133     19132     19134         0         1
     19136     19135     19137         0         1
     19139     19138     19140         0         1
     19142     19141     19143         0         1
     19145     19144     19146         0         1
     19148     19147     19149         0         1
     19151     19150     19152         0         1
     19154     19153     19155         0         1
     19157     19156     19158         0         1
     19160     19159     19161         0         1
     19163     19162     19164         0         1
     19166     19165     19167         0         1
     19169     19168     19170         0         1
     19172     19171     19173         0         1
     19175     19174     19176         0         1
     19178     19177     19179         0         1
     19181     19180     19182         0         1
     19184     19183     19185         0         1
     19187     19186     19188         0         1
     19190     19189     19191         0         1
     19193     19192     19194         0         1
     19196     19195     19197         0         1
     19199     19198     19200         0         1
     19202     19201     19203         0         1
     19205     19204     19206         0         1
     19208     19207     19209         0         1
     19211     19210     19212         0         1
     19214     19213     19215         0         1
     19217     19216     19218         0         1
     19220     19219     19221         0         1
     19223     19222     19224         0         1
     19226     19225     19227         0         1
     19229     19228     19230         0         1
     19232     19231     19233         0         1
     19235     19234     19236         0         1
     19238     19237     19239         0         1
     19241     19240     19242         0         1
     19244     19243     19245         0         1
     19247     19246     19248         0         1
     19250     19249     19251         0         1
     19253     19252     19254         0         1
     19256     19255     19257         0         1
     19259     19258     19260         0         1
     19262     19261     19263         0         1
     19265     19264     19266         0         1
     19268     19267     19269         0         1
     19271     19270     19272         0         1
     19274     19273     19275         0         1
     19277     19276     19278         0         1
     19280     19279     19281         0         1
     19283     19282     19284         0         1
     19286     19285     19287         0         1
     19289     19288     19290         0         1
     19292     19291     19293         0         1
     19295     19294     19296         0         1
     19298     19297     19299         0         1
     19301     19300     19302         0         1
     19304     19303     19305         0         1
     19307     19306     19308         0         1
     19310     19309     19311         0         1
     19313     19312     19314         0         1
     19316     19315     19317         0         1
     19319     19318     19320         0         1
     19322     19321     19323         0         1
     19325     19324     19326         0         1
     19328     19327     19329         0         1
     19331     19330     19332         0         1
     19334     19333     19335         0         1
     19337     19336     19338         0         1
     19340     19339     19341         0         1
     19343     19342     19344         0         1
     19346     19345     19347         0         1
     19349     19348     19350         0         1
     19352     19351     19353         0         1
     19355     19354     19356         0         1
     19358     19357     19359         0         1
     19361     19360     19362         0         1
     19364     19363     19365         0         1
     19367     19366     19368         0         1
     19370     19369     19371         0         1
     19373     19372     19374         0         1
     19376     19375     19377         0         1
     19379     19378     19380         0         1
     19382     19381     19383         0         1
     19385     19384     19386         0         1
     19388     19387     19389         0         1
     19391     19390     19392         0         1
     19394     19393     19395         0         1
     19397     19396     19398         0         1
     19400     19399     19401         0         1
     19403     19402     19404         0         1
     19406     19405     19407         0         1
     19409     19408     19410         0         1
     19412     19411     19413         0         1
     19415     19414     19416         0         1
     19418     19417     19419         0         1
     19421     19420     19422         0         1
     19424     19423     19425         0         1
     19427     19426     19428         0         1
     19430     19429     19431         0         1
     19433     19432     19434         0         1
     19436     19435     19437         0         1
     19439     19438     19440         0         1
     19442     19441     19443         0         1
     19445     19444     19446         0         1
     19448     19447     19449         0         1
     19451     19450     19452         0         1
     19454     19453     19455         0         1
     19457     19456     19458         0         1
     19460     19459     19461         0         1
     19463     19462     19464         0         1
     19466     19465     19467         0         1
     19469     19468     19470         0         1
     19472     19471     19473         0         1
     19475     19474     19476         0         1
     19478     19477     19479         0         1
     19481     19480     19482         0         1
     19484     19483     19485         0         1
     19487     19486     19488         0         1
     19490     19489     19491         0         1
     19493     19492     19494         0         1
     19496     19495     19497         0         1
     19499     19498     19500         0         1
     19502     19501     19503         0         1
     19505     19504     19506         0         1
     19508     19507     19509         0         1
     19511     19510     19512         0         1
     19514     19513     19515         0         1
     19517     19516     19518         0         1
     19520     19519     19521         0         1
     19523     19522     19524         0         1
     19526     19525     19527         0         1
     19529     19528     19530         0         1
     19532     19531     19533         0         1
     19535     19534     19536         0         1
     19538     19537     19539         0         1
     19541     19540     19542         0         1
     19544     19543     19545         0         1
     19547     19546     19548         0         1
     19550     19549     19551         0         1
     19553     19552     19554         0         1
     19556     19555     19557         0         1
     19559     19558     19560         0         1
     19562     19561     19563         0         1
     19565     19564     19566         0         1
     19568     19567     19569         0         1
     19571     19570     19572         0         1
     19574     19573     19575         0         1
     19577     19576     19578         0         1
     19580     19579     19581         0         1
     19583     19582     19584         0         1
     19586     19585     19587         0         1
     19589     19588     19590         0         1
     19592     19591     19593         0         1
     19595     19594     19596         0         1
     19598     19597     19599         0         1
     19601     19600     19602         0         1
     19604     19603     19605         0         1
     19607     19606     19608         0         1
     19610     19609     19611         0         1
     19613     19612     19614         0         1
     19616     19615     19617         0         1
     19619     19618     19620         0         1
     19622     19621     19623         0         1
     19625     19624     19626         0         1
     19628     19627     19629         0         1
     19631     19630     19632         0         1
     19634     19633     19635         0         1
     19637     19636     19638         0         1
     19640     19639     19641         0         1
     19643     19642     19644         0         1
     19646     19645     19647         0         1
     19649     19648     19650         0         1
     19652     19651     19653         0         1
     19655     19654     19656         0         1
     19658     19657     19659         0         1
     19661     19660     19662         0         1
     19664     19663     19665         0         1
     19667     19666     19668         0         1
     19670     19669     19671         0         1
     19673     19672     19674         0         1
     19676     19675     19677         0         1
     19679     19678     19680         0         1
     19682     19681     19683         0         1
     19685     19684     19686         0         1
     19688     19687     19689         0         1
     19691     19690     19692         0         1
     19694     19693     19695         0         1
     19697     19696     19698         0         1
     19700     19699     19701         0         1
     19703     19702     19704         0         1
     19706     19705     19707         0         1
     19709     19708     19710         0         1
     19712     19711     19713         0         1
     19715     19714     19716         0         1
     19718     19717     19719         0         1
     19721     19720     19722         0         1
     19724     19723     19725         0         1
     19727     19726     19728         0         1
     19730     19729     19731         0         1
     19733     19732     19734         0         1
     19736     19735     19737         0         1
     19739     19738     19740         0         1
     19742     19741     19743         0         1
     19745     19744     19746         0         1
     19748     19747     19749         0         1
     19751     19750     19752         0         1
     19754     19753     19755         0         1
     19757     19756     19758         0         1
     19760     19759     19761         0         1
     19763     19762     19764         0         1
     19766     19765     19767         0         1
     19769     19768     19770         0         1
     19772     19771     19773         0         1
     19775     19774     19776         0         1
     19778     19777     19779         0         1
     19781     19780     19782         0         1
     19784     19783     19785         0         1
     19787     19786     19788         0         1
     19790     19789     19791         0         1
     19793     19792     19794         0         1
     19796     19795     19797         0         1
     19799     19798     19800         0         1
     19802     19801     19803         0         1
     19805     19804     19806         0         1
     19808     19807     19809         0         1
     19811     19810     19812         0         1
     19814     19813     19815         0         1
     19817     19816     19818         0         1
     19820     19819     19821         0         1
     19823     19822     19824         0         1
     19826     19825     19827         0         1
     19829     19828     19830         0         1
     19832     19831     19833         0         1
     19835     19834     19836         0         1
     19838     19837     19839         0         1
     19841     19840     19842         0         1
     19844     19843     19845         0         1
     19847     19846     19848         0         1
     19850     19849     19851         0         1
     19853     19852     19854         0         1
     19856     19855     19857         0         1
     19859     19858     19860         0         1
     19862     19861     19863         0         1
     19865     19864     19866         0         1
     19868     19867     19869         0         1
     19871     19870     19872         0         1
     19874     19873     19875         0         1
     19877     19876     19878         0         1
     19880     19879     19881         0         1
     19883     19882     19884         0         1
     19886     19885     19887         0         1
     19889     19888     19890         0         1
     19892     19891     19893         0         1
     19895     19894     19896         0         1
     19898     19897     19899         0         1
     19901     19900     19902         0         1
     19904     19903     19905         0         1
     19907     19906     19908         0         1
     19910     19909     19911         0         1
     19913     19912     19914         0         1
     19916     19915     19917         0         1
     19919     19918     19920         0         1
     19922     19921     19923         0         1
     19925     19924     19926         0         1
     19928     19927     19929         0         1
     19931     19930     19932         0         1
     19934     19933     19935         0         1
     19937     19936     19938         0         1
     19940     19939     19941         0         1
     19943     19942     19944         0         1
     19946     19945     19947         0         1
     19949     19948     19950         0         1
     19952     19951     19953         0         1
     19955     19954     19956         0         1
     19958     19957     19959         0         1
     19961     19960     19962         0         1
     19964     19963     19965         0         1
     19967     19966     19968         0         1
     19970     19969     19971         0         1
     19973     19972     19974         0         1
     19976     19975     19977         0         1
     19979     19978     19980         0         1
     19982     19981     19983         0         1
     19985     19984     19986         0         1
     19988     19987     19989         0         1
     19991     19990     19992         0         1
     19994     19993     19995         0         1
     19997     19996     19998         0         1
     20000     19999     20001         0         1
     20003     20002     20004         0         1
     20006     20005     20007         0         1
     20009     20008     20010         0         1
     20012     20011     20013         0         1
     20015     20014     20016         0         1
     20018     20017     20019         0         1
     20021     20020     20022         0         1
     20024     20023     20025         0         1
     20027     20026     20028         0         1
     20030     20029     20031         0         1
     20033     20032     20034         0         1
     20036     20035     20037         0         1
     20039     20038     20040         0         1
     20042     20041     20043         0         1
     20045     20044     20046         0         1
     20048     20047     20049         0         1
     20051     20050     20052         0         1
     20054     20053     20055         0         1
     20057     20056     20058         0         1
     20060     20059     20061         0         1
     20063     20062     20064         0         1
     20066     20065     20067         0         1
     20069     20068     20070         0         1
     20072     20071     20073         0         1
     20075     20074     20076         0         1
     20078     20077     20079         0         1
     20081     20080     20082         0         1
     20084     20083     20085         0         1
     20087     20086     20088         0         1
     20090     20089     20091         0         1
     20093     20092     20094         0         1
     20096     20095     20097         0         1
     20099     20098     20100         0         1
     20102     20101     20103         0         1
     20105     20104     20106         0         1
     20108     20107     20109         0         1
     20111     20110     20112         0         1
     20114     20113     20115         0         1
     20117     20116     20118         0         1
     20120     20119     20121         0         1
     20123     20122     20124         0         1
     20126     20125     20127         0         1
     20129     20128     20130         0         1
     20132     20131     20133         0         1
     20135     20134     20136         0         1
     20138     20137     20139         0         1
     20141     20140     20142         0         1
     20144     20143     20145         0         1
     20147     20146     20148         0         1
     20150     20149     20151         0         1
     20153     20152     20154         0         1
     20156     20155     20157         0         1
     20159     20158     20160         0         1
     20162     20161     20163         0         1
     20165     20164     20166         0         1
     20168     20167     20169         0         1
     20171     20170     20172         0         1
     20174     20173     20175         0         1
     20177     20176     20178         0         1
     20180     20179     20181         0         1
     20183     20182     20184         0         1
     20186     20185     20187         0         1
     20189     20188     20190         0         1
     20192     20191     20193         0         1
     20195     20194     20196         0         1
     20198     20197     20199         0         1
     20201     20200     20202         0         1
     20204     20203     20205         0         1
     20207     20206     20208         0         1
     20210     20209     20211         0         1
     20213     20212     20214         0         1
     20216     20215     20217         0         1
     20219     20218     20220         0         1
     20222     20221     20223         0         1
     20225     20224     20226         0         1
     20228     20227     20229         0         1
     20231     20230     20232         0         1
     20234     20233     20235         0         1
     20237     20236     20238         0         1
     20240     20239     20241         0         1
     20243     20242     20244         0         1
     20246     20245     20247         0         1
     20249     20248     20250         0         1
     20252     20251     20253         0         1
     20255     20254     20256         0         1
     20258     20257     20259         0         1
     20261     20260     20262         0         1
     20264     20263     20265         0         1
     20267     20266     20268         0         1
     20270     20269     20271         0         1
     20273     20272     20274         0         1
     20276     20275     20277         0         1
     20279     20278     20280         0         1
     20282     20281     20283         0         1
     20285     20284     20286         0         1
     20288     20287     20289         0         1
     20291     20290     20292         0         1
     20294     20293     20295         0         1
     20297     20296     20298         0         1
     20300     20299     20301         0         1
     20303     20302     20304         0         1
     20306     20305     20307         0         1
     20309     20308     20310         0         1
     20312     20311     20313         0         1
     20315     20314     20316         0         1
     20318     20317     20319         0         1
     20321     20320     20322         0         1
     20324     20323     20325         0         1
     20327     20326     20328         0         1
     20330     20329     20331         0         1
     20333     20332     20334         0         1
     20336     20335     20337         0         1
     20339     20338     20340         0         1
     20342     20341     20343         0         1
     20345     20344     20346         0         1
     20348     20347     20349         0         1
     20351     20350     20352         0         1
     20354     20353     20355         0         1
     20357     20356     20358         0         1
     20360     20359     20361         0         1
     20363     20362     20364         0         1
     20366     20365     20367         0         1
     20369     20368     20370         0         1
     20372     20371     20373         0         1
     20375     20374     20376         0         1
     20378     20377     20379         0         1
     20381     20380     20382         0         1
     20384     20383     20385         0         1
     20387     20386     20388         0         1
     20390     20389     20391         0         1
     20393     20392     20394         0         1
     20396     20395     20397         0         1
     20399     20398     20400         0         1
     20402     20401     20403         0         1
     20405     20404     20406         0         1
     20408     20407     20409         0         1
     20411     20410     20412         0         1
     20414     20413     20415         0         1
     20417     20416     20418         0         1
     20420     20419     20421         0         1
     20423     20422     20424         0         1
     20426     20425     20427         0         1
     20429     20428     20430         0         1
     20432     20431     20433         0         1
     20435     20434     20436         0         1
     20438     20437     20439         0         1
     20441     20440     20442         0         1
     20444     20443     20445         0         1
     20447     20446     20448         0         1
     20450     20449     20451         0         1
     20453     20452     20454         0         1
     20456     20455     20457         0         1
     20459     20458     20460         0         1
     20462     20461     20463         0         1
     20465     20464     20466         0         1
     20468     20467     20469         0         1
     20471     20470     20472         0         1
     20474     20473     20475         0         1
     20477     20476     20478         0         1
     20480     20479     20481         0         1
     20483     20482     20484         0         1
     20486     20485     20487         0         1
     20489     20488     20490         0         1
     20492     20491     20493         0         1
     20495     20494     20496         0         1
     20498     20497     20499         0         1
     20501     20500     20502         0         1
     20504     20503     20505         0         1
     20507     20506     20508         0         1
     20510     20509     20511         0         1
     20513     20512     20514         0         1
     20516     20515     20517         0         1
     20519     20518     20520         0         1
     20522     20521     20523         0         1
     20525     20524     20526         0         1
     20528     20527     20529         0         1
     20531     20530     20532         0         1
     20534     20533     20535         0         1
     20537     20536     20538         0         1
     20540     20539     20541         0         1
     20543     20542     20544         0         1
     20546     20545     20547         0         1
     20549     20548     20550         0         1
     20552     20551     20553         0         1
     20555     20554     20556         0         1
     20558     20557     20559         0         1
     20561     20560     20562         0         1
     20564     20563     20565         0         1
     20567     20566     20568         0         1
     20570     20569     20571         0         1
     20573     20572     20574         0         1
     20576     20575     20577         0         1
     20579     20578     20580         0         1
     20582     20581     20583         0         1
     20585     20584     20586         0         1
     20588     20587     20589         0         1
     20591     20590     20592         0         1
     20594     20593     20595         0         1
     20597     20596     20598         0         1
     20600     20599     20601         0         1
     20603     20602     20604         0         1
     20606     20605     20607         0         1
     20609     20608     20610         0         1
     20612     20611     20613         0         1
     20615     20614     20616         0         1
     20618     20617     20619         0         1
     20621     20620     20622         0         1
     20624     20623     20625         0         1
     20627     20626     20628         0         1
     20630     20629     20631         0         1
     20633     20632     20634         0         1
     20636     20635     20637         0         1
     20639     20638     20640         0         1
     20642     20641     20643         0         1
     20645     20644     20646         0         1
     20648     20647     20649         0         1
     20651     20650     20652         0         1
     20654     20653     20655         0         1
     20657     20656     20658         0         1
     20660     20659     20661         0         1
     20663     20662     20664         0         1
     20666     20665     20667         0         1
     20669     20668     20670         0         1
     20672     20671     20673         0         1
     20675     20674     20676         0         1
     20678     20677     20679         0         1
     20681     20680     20682         0         1
     20684     20683     20685         0         1
     20687     20686     20688         0         1
     20690     20689     20691         0         1
     20693     20692     20694         0         1
     20696     20695     20697         0         1
     20699     20698     20700         0         1
     20702     20701     20703         0         1
     20705     20704     20706         0         1
     20708     20707     20709         0         1
     20711     20710     20712         0         1
     20714     20713     20715         0         1
     20717     20716     20718         0         1
     20720     20719     20721         0         1
     20723     20722     20724         0         1
     20726     20725     20727         0         1
     20729     20728     20730         0         1
     20732     20731     20733         0         1
     20735     20734     20736         0         1
     20738     20737     20739         0         1
     20741     20740     20742         0         1
     20744     20743     20745         0         1
     20747     20746     20748         0         1
     20750     20749     20751         0         1
     20753     20752     20754         0         1
     20756     20755     20757         0         1
     20759     20758     20760         0         1
     20762     20761     20763         0         1
     20765     20764     20766         0         1
     20768     20767     20769         0         1
     20771     20770     20772         0         1
     20774     20773     20775         0         1
     20777     20776     20778         0         1
     20780     20779     20781         0         1
     20783     20782     20784         0         1
     20786     20785     20787         0         1
     20789     20788     20790         0         1
     20792     20791     20793         0         1
     20795     20794     20796         0         1
     20798     20797     20799         0         1
     20801     20800     20802         0         1
     20804     20803     20805         0         1
     20807     20806     20808         0         1
     20810     20809     20811         0         1
     20813     20812     20814         0         1
     20816     20815     20817         0         1
     20819     20818     20820         0         1
     20822     20821     20823         0         1
     20825     20824     20826         0         1
     20828     20827     20829         0         1
     20831     20830     20832         0         1
     20834     20833     20835         0         1
     20837     20836     20838         0         1
     20840     20839     20841         0         1
     20843     20842     20844         0         1
     20846     20845     20847         0         1
     20849     20848     20850         0         1
     20852     20851     20853         0         1
     20855     20854     20856         0         1
     20858     20857     20859         0         1
     20861     20860     20862         0         1
     20864     20863     20865         0         1
     20867     20866     20868         0         1
     20870     20869     20871         0         1
     20873     20872     20874         0         1
     20876     20875     20877         0         1
     20879     20878     20880         0         1
     20882     20881     20883         0         1
     20885     20884     20886         0         1
     20888     20887     20889         0         1
     20891     20890     20892         0         1
     20894     20893     20895         0         1
     20897     20896     20898         0         1
     20900     20899     20901         0         1
     20903     20902     20904         0         1
     20906     20905     20907         0         1
     20909     20908     20910         0         1
     20912     20911     20913         0         1
     20915     20914     20916         0         1
     20918     20917     20919         0         1
     20921     20920     20922         0         1
     20924     20923     20925         0         1
     20927     20926     20928         0         1
     20930     20929     20931         0         1
     20933     20932     20934         0         1
     20936     20935     20937         0         1
     20939     20938     20940         0         1
     20942     20941     20943         0         1
     20945     20944     20946         0         1
     20948     20947     20949         0         1
     20951     20950     20952         0         1
     20954     20953     20955         0         1
     20957     20956     20958         0         1
     20960     20959     20961         0         1
     20963     20962     20964         0         1
     20966     20965     20967         0         1
     20969     20968     20970         0         1
     20972     20971     20973         0         1
     20975     20974     20976         0         1
     20978     20977     20979         0         1
     20981     20980     20982         0         1
     20984     20983     20985         0         1
     20987     20986     20988         0         1
     20990     20989     20991         0         1
     20993     20992     20994         0         1
     20996     20995     20997         0         1
     20999     20998     21000         0         1
     21002     21001     21003         0         1
     21005     21004     21006         0         1
     21008     21007     21009         0         1
     21011     21010     21012         0         1
     21014     21013     21015         0         1
     21017     21016     21018         0         1
     21020     21019     21021         0         1
     21023     21022     21024         0         1
     21026     21025     21027         0         1
     21029     21028     21030         0         1
     21032     21031     21033         0         1
     21035     21034     21036         0         1
     21038     21037     21039         0         1
     21041     21040     21042         0         1
     21044     21043     21045         0         1
     21047     21046     21048         0         1
     21050     21049     21051         0         1
     21053     21052     21054         0         1
     21056     21055     21057         0         1
     21059     21058     21060         0         1
     21062     21061     21063         0         1
     21065     21064     21066         0         1
     21068     21067     21069         0         1
     21071     21070     21072         0         1
     21074     21073     21075         0         1
     21077     21076     21078         0         1
     21080     21079     21081         0         1
     21083     21082     21084         0         1
     21086     21085     21087         0         1
     21089     21088     21090         0         1
     21092     21091     21093         0         1
     21095     21094     21096         0         1
     21098     21097     21099         0         1
     21101     21100     21102         0         1
     21104     21103     21105         0         1
     21107     21106     21108         0         1
     21110     21109     21111         0         1
     21113     21112     21114         0         1
     21116     21115     21117         0         1
     21119     21118     21120         0         1
     21122     21121     21123         0         1
     21125     21124     21126         0         1
     21128     21127     21129         0         1
     21131     21130     21132         0         1
     21134     21133     21135         0         1
     21137     21136     21138         0         1
     21140     21139     21141         0         1
     21143     21142     21144         0         1
     21146     21145     21147         0         1
     21149     21148     21150         0         1
     21152     21151     21153         0         1
     21155     21154     21156         0         1
     21158     21157     21159         0         1
     21161     21160     21162         0         1
     21164     21163     21165         0         1
     21167     21166     21168         0         1
     21170     21169     21171         0         1
     21173     21172     21174         0         1
     21176     21175     21177         0         1
     21179     21178     21180         0         1
     21182     21181     21183         0         1
     21185     21184     21186         0         1
     21188     21187     21189         0         1
     21191     21190     21192         0         1
     21194     21193     21195         0         1
     21197     21196     21198         0         1
     21200     21199     21201         0         1
     21203     21202     21204         0         1
     21206     21205     21207         0         1
     21209     21208     21210         0         1
     21212     21211     21213         0         1
     21215     21214     21216         0         1
     21218     21217     21219         0         1
     21221     21220     21222         0         1
     21224     21223     21225         0         1
     21227     21226     21228         0         1
     21230     21229     21231         0         1
     21233     21232     21234         0         1
     21236     21235     21237         0         1
     21239     21238     21240         0         1
     21242     21241     21243         0         1
     21245     21244     21246         0         1
     21248     21247     21249         0         1
     21251     21250     21252         0         1
     21254     21253     21255         0         1
     21257     21256     21258         0         1
     21260     21259     21261         0         1
     21263     21262     21264         0         1
     21266     21265     21267         0         1
     21269     21268     21270         0         1
     21272     21271     21273         0         1
     21275     21274     21276         0         1
     21278     21277     21279         0         1
     21281     21280     21282         0         1
     21284     21283     21285         0         1
     21287     21286     21288         0         1
     21290     21289     21291         0         1
     21293     21292     21294         0         1
     21296     21295     21297         0         1
     21299     21298     21300         0         1
     21302     21301     21303         0         1
     21305     21304     21306         0         1
     21308     21307     21309         0         1
     21311     21310     21312         0         1
     21314     21313     21315         0         1
     21317     21316     21318         0         1
     21320     21319     21321         0         1
     21323     21322     21324         0         1
     21326     21325     21327         0         1
     21329     21328     21330         0         1
     21332     21331     21333         0         1
     21335     21334     21336         0         1
     21338     21337     21339         0         1
     21341     21340     21342         0         1
     21344     21343     21345         0         1
     21347     21346     21348         0         1
     21350     21349     21351         0         1
     21353     21352     21354         0         1
     21356     21355     21357         0         1
     21359     21358     21360         0         1
     21362     21361     21363         0         1
     21365     21364     21366         0         1
     21368     21367     21369         0         1
     21371     21370     21372         0         1
     21374     21373     21375         0         1
     21377     21376     21378         0         1
     21380     21379     21381         0         1
     21383     21382     21384         0         1
     21386     21385     21387         0         1
     21389     21388     21390         0         1
     21392     21391     21393         0         1
     21395     21394     21396         0         1
     21398     21397     21399         0         1
     21401     21400     21402         0         1
     21404     21403     21405         0         1
     21407     21406     21408         0         1
     21410     21409     21411         0         1
     21413     21412     21414         0         1
     21416     21415     21417         0         1
     21419     21418     21420         0         1
     21422     21421     21423         0         1
     21425     21424     21426         0         1
     21428     21427     21429         0         1
     21431     21430     21432         0         1
     21434     21433     21435         0         1
     21437     21436     21438         0         1
     21440     21439     21441         0         1
     21443     21442     21444         0         1
     21446     21445     21447         0         1
     21449     21448     21450         0         1
     21452     21451     21453         0         1
     21455     21454     21456         0         1
     21458     21457     21459         0         1
     21461     21460     21462         0         1
     21464     21463     21465         0         1
     21467     21466     21468         0         1
     21470     21469     21471         0         1
     21473     21472     21474         0         1
     21476     21475     21477         0         1
     21479     21478     21480         0         1
     21482     21481     21483         0         1
     21485     21484     21486         0         1
     21488     21487     21489         0         1
     21491     21490     21492         0         1
     21494     21493     21495         0         1
     21497     21496     21498         0         1
     21500     21499     21501         0         1
     21503     21502     21504         0         1
     21506     21505     21507         0         1
     21509     21508     21510         0         1
     21512     21511     21513         0         1
     21515     21514     21516         0         1
     21518     21517     21519         0         1
     21521     21520     21522         0         1
     21524     21523     21525         0         1
     21527     21526     21528         0         1
     21530     21529     21531         0         1
     21533     21532     21534         0         1
     21536     21535     21537         0         1
     21539     21538     21540         0         1
     21542     21541     21543         0         1
     21545     21544     21546         0         1
     21548     21547     21549         0         1
     21551     21550     21552         0         1
     21554     21553     21555         0         1
     21557     21556     21558         0         1
     21560     21559     21561         0         1
     21563     21562     21564         0         1
     21566     21565     21567         0         1
     21569     21568     21570         0         1
     21572     21571     21573         0         1
     21575     21574     21576         0         1
     21578     21577     21579         0         1
     21581     21580     21582         0         1
     21584     21583     21585         0         1
     21587     21586     21588         0         1
     21590     21589     21591         0         1
     21593     21592     21594         0         1
     21596     21595     21597         0         1
     21599     21598     21600         0         1
     21602     21601     21603         0         1
     21605     21604     21606         0         1
     21608     21607     21609         0         1
     21611     21610     21612         0         1
     21614     21613     21615         0         1
     21617     21616     21618         0         1
     21620     21619     21621         0         1
     21623     21622     21624         0         1
     21626     21625     21627         0         1
     21629     21628     21630         0         1
     21632     21631     21633         0         1
     21635     21634     21636         0         1
     21638     21637     21639         0         1
     21641     21640     21642         0         1
     21644     21643     21645         0         1
     21647     21646     21648         0         1
     21650     21649     21651         0         1
     21653     21652     21654         0         1
     21656     21655     21657         0         1
     21659     21658     21660         0         1
     21662     21661     21663         0         1
     21665     21664     21666         0         1
     21668     21667     21669         0         1
     21671     21670     21672         0         1
     21674     21673     21675         0         1
     21677     21676     21678         0         1
     21680     21679     21681         0         1
     21683     21682     21684         0         1
     21686     21685     21687         0         1
     21689     21688     21690         0         1
     21692     21691     21693         0         1
     21695     21694     21696         0         1
     21698     21697     21699         0         1
     21701     21700     21702         0         1
     21704     21703     21705         0         1
     21707     21706     21708         0         1
     21710     21709     21711         0         1
     21713     21712     21714         0         1
     21716     21715     21717         0         1
     21719     21718     21720         0         1
     21722     21721     21723         0         1
     21725     21724     21726         0         1
     21728     21727     21729         0         1
     21731     21730     21732         0         1
     21734     21733     21735         0         1
     21737     21736     21738         0         1
     21740     21739     21741         0         1
     21743     21742     21744         0         1
     21746     21745     21747         0         1
     21749     21748     21750         0         1
     21752     21751     21753         0         1
     21755     21754     21756         0         1
     21758     21757     21759         0         1
     21761     21760     21762         0         1
     21764     21763     21765         0         1
     21767     21766     21768         0         1
     21770     21769     21771         0         1
     21773     21772     21774         0         1
     21776     21775     21777         0         1
     21779     21778     21780         0         1
     21782     21781     21783         0         1
     21785     21784     21786         0         1
     21788     21787     21789         0         1
     21791     21790     21792         0         1
     21794     21793     21795         0         1
     21797     21796     21798         0         1
     21800     21799     21801         0         1
     21803     21802     21804         0         1
     21806     21805     21807         0         1
     21809     21808     21810         0         1
     21812     21811     21813         0         1
     21815     21814     21816         0         1
     21818     21817     21819         0         1
     21821     21820     21822         0         1
     21824     21823     21825         0         1
     21827     21826     21828         0         1
     21830     21829     21831         0         1
     21833     21832     21834         0         1
     21836     21835     21837         0         1
     21839     21838     21840         0         1
     21842     21841     21843         0         1
     21845     21844     21846         0         1
     21848     21847     21849         0         1
     21851     21850     21852         0         1
     21854     21853     21855         0         1
     21857     21856     21858         0         1
     21860     21859     21861         0         1
     21863     21862     21864         0         1
     21866     21865     21867         0         1
     21869     21868     21870         0         1
     21872     21871     21873         0         1
     21875     21874     21876         0         1
     21878     21877     21879         0         1
     21881     21880     21882         0         1
     21884     21883     21885         0         1
     21887     21886     21888         0         1
     21890     21889     21891         0         1
     21893     21892     21894         0         1
     21896     21895     21897         0         1
     21899     21898     21900         0         1
     21902     21901     21903         0         1
     21905     21904     21906         0         1
     21908     21907     21909         0         1
     21911     21910     21912         0         1
     21914     21913     21915         0         1
     21917     21916     21918         0         1
     21920     21919     21921         0         1
     21923     21922     21924         0         1
     21926     21925     21927         0         1
     21929     21928     21930         0         1
     21932     21931     21933         0         1
     21935     21934     21936         0         1
     21938     21937     21939         0         1
     21941     21940     21942         0         1
     21944     21943     21945         0         1
     21947     21946     21948         0         1
     21950     21949     21951         0         1
     21953     21952     21954         0         1
     21956     21955     21957         0         1
     21959     21958     21960         0         1
     21962     21961     21963         0         1
     21965     21964     21966         0         1
     21968     21967     21969         0         1
     21971     21970     21972         0         1
     21974     21973     21975         0         1
     21977     21976     21978         0         1
     21980     21979     21981         0         1
     21983     21982     21984         0         1
     21986     21985     21987         0         1
     21989     21988     21990         0         1
     21992     21991     21993         0         1
     21995     21994     21996         0         1
     21998     21997     21999         0         1
     22001     22000     22002         0         1
     22004     22003     22005         0         1
     22007     22006     22008         0         1
     22010     22009     22011         0         1
     22013     22012     22014         0         1
     22016     22015     22017         0         1
     22019     22018     22020         0         1
     22022     22021     22023         0         1
     22025     22024     22026         0         1
     22028     22027     22029         0         1
     22031     22030     22032         0         1
     22034     22033     22035         0         1
     22037     22036     22038         0         1
     22040     22039     22041         0         1
     22043     22042     22044         0         1
     22046     22045     22047         0         1
     22049     22048     22050         0         1
     22052     22051     22053         0         1
     22055     22054     22056         0         1
     22058     22057     22059         0         1
     22061     22060     22062         0         1
     22064     22063     22065         0         1
     22067     22066     22068         0         1
     22070     22069     22071         0         1
     22073     22072     22074         0         1
     22076     22075     22077         0         1
     22079     22078     22080         0         1
     22082     22081     22083         0         1
     22085     22084     22086         0         1
     22088     22087     22089         0         1
     22091     22090     22092         0         1
     22094     22093     22095         0         1
     22097     22096     22098         0         1
     22100     22099     22101         0         1
     22103     22102     22104         0         1
     22106     22105     22107         0         1
     22109     22108     22110         0         1
     22112     22111     22113         0         1
     22115     22114     22116         0         1
     22118     22117     22119         0         1
     22121     22120     22122         0         1
     22124     22123     22125         0         1
     22127     22126     22128         0         1
     22130     22129     22131         0         1
     22133     22132     22134         0         1
     22136     22135     22137         0         1
     22139     22138     22140         0         1
     22142     22141     22143         0         1
     22145     22144     22146         0         1
     22148     22147     22149         0         1
     22151     22150     22152         0         1
     22154     22153     22155         0         1
     22157     22156     22158         0         1
     22160     22159     22161         0         1
     22163     22162     22164         0         1
     22166     22165     22167         0         1
     22169     22168     22170         0         1
     22172     22171     22173         0         1
     22175     22174     22176         0         1
     22178     22177     22179         0         1
     22181     22180     22182         0         1
     22184     22183     22185         0         1
     22187     22186     22188         0         1
     22190     22189     22191         0         1
     22193     22192     22194         0         1
     22196     22195     22197         0         1
     22199     22198     22200         0         1
     22202     22201     22203         0         1
     22205     22204     22206         0         1
     22208     22207     22209         0         1
     22211     22210     22212         0         1
     22214     22213     22215         0         1
     22217     22216     22218         0         1
     22220     22219     22221         0         1
     22223     22222     22224         0         1
     22226     22225     22227         0         1
     22229     22228     22230         0         1
     22232     22231     22233         0         1
     22235     22234     22236         0         1
     22238     22237     22239         0         1
     22241     22240     22242         0         1
     22244     22243     22245         0         1
     22247     22246     22248         0         1
     22250     22249     22251         0         1
     22253     22252     22254         0         1
     22256     22255     22257         0         1
     22259     22258     22260         0         1
     22262     22261     22263         0         1
     22265     22264     22266         0         1
     22268     22267     22269         0         1
     22271     22270     22272         0         1
     22274     22273     22275         0         1
     22277     22276     22278         0         1
     22280     22279     22281         0         1
     22283     22282     22284         0         1
     22286     22285     22287         0         1
     22289     22288     22290         0         1
     22292     22291     22293         0         1
     22295     22294     22296         0         1
     22298     22297     22299         0         1
     22301     22300     22302         0         1
     22304     22303     22305         0         1
     22307     22306     22308         0         1
     22310     22309     22311         0         1
     22313     22312     22314         0         1
     22316     22315     22317         0         1
     22319     22318     22320         0         1
     22322     22321     22323         0         1
     22325     22324     22326         0         1
     22328     22327     22329         0         1
     22331     22330     22332         0         1
     22334     22333     22335         0         1
     22337     22336     22338         0         1
     22340     22339     22341         0         1
     22343     22342     22344         0         1
     22346     22345     22347         0         1
     22349     22348     22350         0         1
     22352     22351     22353         0         1
     22355     22354     22356         0         1
     22358     22357     22359         0         1
     22361     22360     22362         0         1
     22364     22363     22365         0         1
     22367     22366     22368         0         1
     22370     22369     22371         0         1
     22373     22372     22374         0         1
     22376     22375     22377         0         1
     22379     22378     22380         0         1
     22382     22381     22383         0         1
     22385     22384     22386         0         1
     22388     22387     22389         0         1
     22391     22390     22392         0         1
     22394     22393     22395         0         1
     22397     22396     22398         0         1
     22400     22399     22401         0         1
     22403     22402     22404         0         1
     22406     22405     22407         0         1
     22409     22408     22410         0         1
     22412     22411     22413         0         1
     22415     22414     22416         0         1
     22418     22417     22419         0         1
     22421     22420     22422         0         1
     22424     22423     22425         0         1
     22427     22426     22428         0         1
     22430     22429     22431         0         1
     22433     22432     22434         0         1
     22436     22435     22437         0         1
     22439     22438     22440         0         1
     22442     22441     22443         0         1
     22445     22444     22446         0         1
     22448     22447     22449         0         1
     22451     22450     22452         0         1
     22454     22453     22455         0         1
     22457     22456     22458         0         1
     22460     22459     22461         0         1
     22463     22462     22464         0         1
     22466     22465     22467         0         1
     22469     22468     22470         0         1
     22472     22471     22473         0         1
     22475     22474     22476         0         1
     22478     22477     22479         0         1
     22481     22480     22482         0         1
     22484     22483     22485         0         1
     22487     22486     22488         0         1
     22490     22489     22491         0         1
     22493     22492     22494         0         1
     22496     22495     22497         0         1
     22499     22498     22500         0         1
     22502     22501     22503         0         1
     22505     22504     22506         0         1
     22508     22507     22509         0         1
     22511     22510     22512         0         1
     22514     22513     22515         0         1
     22517     22516     22518         0         1
     22520     22519     22521         0         1
     22523     22522     22524         0         1
     22526     22525     22527         0         1
     22529     22528     22530         0         1
     22532     22531     22533         0         1
     22535     22534     22536         0         1
     22538     22537     22539         0         1
     22541     22540     22542         0         1
     22544     22543     22545         0         1
     22547     22546     22548         0         1
     22550     22549     22551         0         1
     22553     22552     22554         0         1
     22556     22555     22557         0         1
     22559     22558     22560         0         1
     22562     22561     22563         0         1
     22565     22564     22566         0         1
     22568     22567     22569         0         1
     22571     22570     22572         0         1
     22574     22573     22575         0         1
     22577     22576     22578         0         1
     22580     22579     22581         0         1
     22583     22582     22584         0         1
     22586     22585     22587         0         1
     22589     22588     22590         0         1
     22592     22591     22593         0         1
     22595     22594     22596         0         1
     22598     22597     22599         0         1
     22601     22600     22602         0         1
     22604     22603     22605         0         1
     22607     22606     22608         0         1
     22610     22609     22611         0         1
     22613     22612     22614         0         1
     22616     22615     22617         0         1
     22619     22618     22620         0         1
     22622     22621     22623         0         1
     22625     22624     22626         0         1
     22628     22627     22629         0         1
     22631     22630     22632         0         1
     22634     22633     22635         0         1
     22637     22636     22638         0         1
     22640     22639     22641         0         1
     22643     22642     22644         0         1
     22646     22645     22647         0         1
     22649     22648     22650         0         1
     22652     22651     22653         0         1
     22655     22654     22656         0         1
     22658     22657     22659         0         1
     22661     22660     22662         0         1
     22664     22663     22665         0         1
     22667     22666     22668         0         1
     22670     22669     22671         0         1
     22673     22672     22674         0         1
     22676     22675     22677         0         1
     22679     22678     22680         0         1
     22682     22681     22683         0         1
     22685     22684     22686         0         1
     22688     22687     22689         0         1
     22691     22690     22692         0         1
     22694     22693     22695         0         1
     22697     22696     22698         0         1
     22700     22699     22701         0         1
     22703     22702     22704         0         1
     22706     22705     22707         0         1
     22709     22708     22710         0         1
     22712     22711     22713         0         1
     22715     22714     22716         0         1
     22718     22717     22719         0         1
     22721     22720     22722         0         1
     22724     22723     22725         0         1
     22727     22726     22728         0         1
     22730     22729     22731         0         1
     22733     22732     22734         0         1
     22736     22735     22737         0         1
     22739     22738     22740         0         1
     22742     22741     22743         0         1
     22745     22744     22746         0         1
     22748     22747     22749         0         1
     22751     22750     22752         0         1
     22754     22753     22755         0         1
     22757     22756     22758         0         1
     22760     22759     22761         0         1
     22763     22762     22764         0         1
     22766     22765     22767         0         1
     22769     22768     22770         0         1
     22772     22771     22773         0         1
     22775     22774     22776         0         1
     22778     22777     22779         0         1
     22781     22780     22782         0         1
     22784     22783     22785         0         1
     22787     22786     22788         0         1
     22790     22789     22791         0         1
     22793     22792     22794         0         1
     22796     22795     22797         0         1
     22799     22798     22800         0         1
     22802     22801     22803         0         1
     22805     22804     22806         0         1
     22808     22807     22809         0         1
     22811     22810     22812         0         1
     22814     22813     22815         0         1
     22817     22816     22818         0         1
     22820     22819     22821         0         1
     22823     22822     22824         0         1
     22826     22825     22827         0         1
     22829     22828     22830         0         1
     22832     22831     22833         0         1
     22835     22834     22836         0         1
     22838     22837     22839         0         1
     22841     22840     22842         0         1
     22844     22843     22845         0         1
     22847     22846     22848         0         1
     22850     22849     22851         0         1
     22853     22852     22854         0         1
     22856     22855     22857         0         1
     22859     22858     22860         0         1
     22862     22861     22863         0         1
     22865     22864     22866         0         1
     22868     22867     22869         0         1
     22871     22870     22872         0         1
     22874     22873     22875         0         1
     22877     22876     22878         0         1
     22880     22879     22881         0         1
     22883     22882     22884         0         1
     22886     22885     22887         0         1
     22889     22888     22890         0         1
     22892     22891     22893         0         1
     22895     22894     22896         0         1
     22898     22897     22899         0         1
     22901     22900     22902         0         1
     22904     22903     22905         0         1
     22907     22906     22908         0         1
     22910     22909     22911         0         1
     22913     22912     22914         0         1
     22916     22915     22917         0         1
     22919     22918     22920         0         1
     22922     22921     22923         0         1
     22925     22924     22926         0         1
     22928     22927     22929         0         1
     22931     22930     22932         0         1
     22934     22933     22935         0         1
     22937     22936     22938         0         1
     22940     22939     22941         0         1
     22943     22942     22944         0         1
     22946     22945     22947         0         1
     22949     22948     22950         0         1
     22952     22951     22953         0         1
     22955     22954     22956         0         1
     22958     22957     22959         0         1
     22961     22960     22962         0         1
     22964     22963     22965         0         1
     22967     22966     22968         0         1
     22970     22969     22971         0         1
     22973     22972     22974         0         1
     22976     22975     22977         0         1
     22979     22978     22980         0         1
     22982     22981     22983         0         1
     22985     22984     22986         0         1
     22988     22987     22989         0         1
     22991     22990     22992         0         1
     22994     22993     22995         0         1
     22997     22996     22998         0         1
     23000     22999     23001         0         1
     23003     23002     23004         0         1
     23006     23005     23007         0         1
     23009     23008     23010         0         1
     23012     23011     23013         0         1
     23015     23014     23016         0         1
     23018     23017     23019         0         1
     23021     23020     23022         0         1
     23024     23023     23025         0         1
     23027     23026     23028         0         1
     23030     23029     23031         0         1
     23033     23032     23034         0         1
     23036     23035     23037         0         1
     23039     23038     23040         0         1
     23042     23041     23043         0         1
     23045     23044     23046         0         1
     23048     23047     23049         0         1
     23051     23050     23052         0         1
     23054     23053     23055         0         1
     23057     23056     23058         0         1
     23060     23059     23061         0         1
     23063     23062     23064         0         1
     23066     23065     23067         0         1
     23069     23068     23070         0         1
     23072     23071     23073         0         1
     23075     23074     23076         0         1
     23078     23077     23079         0         1
     23081     23080     23082         0         1
     23084     23083     23085         0         1
     23087     23086     23088         0         1
     23090     23089     23091         0         1
     23093     23092     23094         0         1
     23096     23095     23097         0         1
     23099     23098     23100         0         1
     23102     23101     23103         0         1
     23105     23104     23106         0         1
     23108     23107     23109         0         1
     23111     23110     23112         0         1
     23114     23113     23115         0         1
     23117     23116     23118         0         1
     23120     23119     23121         0         1
     23123     23122     23124         0         1
     23126     23125     23127         0         1
     23129     23128     23130         0         1
     23132     23131     23133         0         1
     23135     23134     23136         0         1
     23138     23137     23139         0         1
     23141     23140     23142         0         1
     23144     23143     23145         0         1
     23147     23146     23148         0         1
     23150     23149     23151         0         1
     23153     23152     23154         0         1
     23156     23155     23157         0         1
     23159     23158     23160         0         1
     23162     23161     23163         0         1
     23165     23164     23166         0         1
     23168     23167     23169         0         1
     23171     23170     23172         0         1
     23174     23173     23175         0         1
     23177     23176     23178         0         1
     23180     23179     23181         0         1
     23183     23182     23184         0         1
     23186     23185     23187         0         1
     23189     23188     23190         0         1
     23192     23191     23193         0         1
     23195     23194     23196         0         1
     23198     23197     23199         0         1
     23201     23200     23202         0         1
     23204     23203     23205         0         1
     23207     23206     23208         0         1
     23210     23209     23211         0         1
     23213     23212     23214         0         1
     23216     23215     23217         0         1
     23219     23218     23220         0         1
     23222     23221     23223         0         1
     23225     23224     23226         0         1
     23228     23227     23229         0         1
     23231     23230     23232         0         1
     23234     23233     23235         0         1
     23237     23236     23238         0         1
     23240     23239     23241         0         1
     23243     23242     23244         0         1
     23246     23245     23247         0         1
     23249     23248     23250         0         1
     23252     23251     23253         0         1
     23255     23254     23256         0         1
     23258     23257     23259         0         1
     23261     23260     23262         0         1
     23264     23263     23265         0         1
     23267     23266     23268         0         1
     23270     23269     23271         0         1
     23273     23272     23274         0         1
     23276     23275     23277         0         1
     23279     23278     23280         0         1
     23282     23281     23283         0         1
     23285     23284     23286         0         1
     23288     23287     23289         0         1
     23291     23290     23292         0         1
     23294     23293     23295         0         1
     23297     23296     23298         0         1
     23300     23299     23301         0         1
     23303     23302     23304         0         1
     23306     23305     23307         0         1
     23309     23308     23310         0         1
     23312     23311     23313         0         1
     23315     23314     23316         0         1
     23318     23317     23319         0         1
     23321     23320     23322         0         1
     23324     23323     23325         0         1
     23327     23326     23328         0         1
     23330     23329     23331         0         1
     23333     23332     23334         0         1
     23336     23335     23337         0         1
     23339     23338     23340         0         1
     23342     23341     23343         0         1
     23345     23344     23346         0         1
     23348     23347     23349         0         1
     23351     23350     23352         0         1
     23354     23353     23355         0         1
     23357     23356     23358         0         1
     23360     23359     23361         0         1
     23363     23362     23364         0         1
     23366     23365     23367         0         1
     23369     23368     23370         0         1
     23372     23371     23373         0         1
     23375     23374     23376         0         1
     23378     23377     23379         0         1
     23381     23380     23382         0         1
     23384     23383     23385         0         1
     23387     23386     23388         0         1
     23390     23389     23391         0         1
     23393     23392     23394         0         1
     23396     23395     23397         0         1
     23399     23398     23400         0         1
     23402     23401     23403         0         1
     23405     23404     23406         0         1
     23408     23407     23409         0         1
     23411     23410     23412         0         1
     23414     23413     23415         0         1
     23417     23416     23418         0         1
     23420     23419     23421         0         1
     23423     23422     23424         0         1
     23426     23425     23427         0         1
     23429     23428     23430         0         1
     23432     23431     23433         0         1
     23435     23434     23436         0         1
     23438     23437     23439         0         1
     23441     23440     23442         0         1
     23444     23443     23445         0         1
     23447     23446     23448         0         1
     23450     23449     23451         0         1
     23453     23452     23454         0         1
     23456     23455     23457         0         1
     23459     23458     23460         0         1
     23462     23461     23463         0         1
     23465     23464     23466         0         1
     23468     23467     23469         0         1
     23471     23470     23472         0         1
     23474     23473     23475         0         1
     23477     23476     23478         0         1
     23480     23479     23481         0         1
     23483     23482     23484         0         1
     23486     23485     23487         0         1
     23489     23488     23490         0         1
     23492     23491     23493         0         1
     23495     23494     23496         0         1
     23498     23497     23499         0         1
     23501     23500     23502         0         1
     23504     23503     23505         0         1
     23507     23506     23508         0         1
     23510     23509     23511         0         1
     23513     23512     23514         0         1
     23516     23515     23517         0         1
     23519     23518     23520         0         1
     23522     23521     23523         0         1
     23525     23524     23526         0         1
     23528     23527     23529         0         1
     23531     23530     23532         0         1
     23534     23533     23535         0         1
     23537     23536     23538         0         1
     23540     23539     23541         0         1
     23543     23542     23544         0         1
     23546     23545     23547         0         1
     23549     23548     23550         0         1
     23552     23551     23553         0         1
     23555     23554     23556         0         1
     23558     23557     23559         0         1
     23561     23560     23562         0         1
     23564     23563     23565         0         1
     23567     23566     23568         0         1
     23570     23569     23571         0         1
     23573     23572     23574         0         1
     23576     23575     23577         0         1
     23579     23578     23580         0         1
     23582     23581     23583         0         1
     23585     23584     23586         0         1
     23588     23587     23589         0         1
     23591     23590     23592         0         1
     23594     23593     23595         0         1
     23597     23596     23598         0         1
     23600     23599     23601         0         1
     23603     23602     23604         0         1
     23606     23605     23607         0         1
     23609     23608     23610         0         1
     23612     23611     23613         0         1
     23615     23614     23616         0         1
     23618     23617     23619         0         1
     23621     23620     23622         0         1
     23624     23623     23625         0         1
     23627     23626     23628         0         1
     23630     23629     23631         0         1
     23633     23632     23634         0         1
     23636     23635     23637         0         1
     23639     23638     23640         0         1
     23642     23641     23643         0         1
     23645     23644     23646         0         1
     23648     23647     23649         0         1
     23651     23650     23652         0         1
     23654     23653     23655         0         1
     23657     23656     23658         0         1
     23660     23659     23661         0         1
     23663     23662     23664         0         1
     23666     23665     23667         0         1
     23669     23668     23670         0         1
     23672     23671     23673         0         1
     23675     23674     23676         0         1
     23678     23677     23679         0         1
     23681     23680     23682         0         1
     23684     23683     23685         0         1
     23687     23686     23688         0         1
     23690     23689     23691         0         1
     23693     23692     23694         0         1
     23696     23695     23697         0         1
     23699     23698     23700         0         1
     23702     23701     23703         0         1
     23705     23704     23706         0         1
     23708     23707     23709         0         1
     23711     23710     23712         0         1
     23714     23713     23715         0         1
     23717     23716     23718         0         1
     23720     23719     23721         0         1
     23723     23722     23724         0         1
     23726     23725     23727         0         1
     23729     23728     23730         0         1
     23732     23731     23733         0         1
     23735     23734     23736         0         1
     23738     23737     23739         0         1
     23741     23740     23742         0         1
     23744     23743     23745         0         1
     23747     23746     23748         0         1
     23750     23749     23751         0         1
     23753     23752     23754         0         1
     23756     23755     23757         0         1
     23759     23758     23760         0         1
     23762     23761     23763         0         1
     23765     23764     23766         0         1
     23768     23767     23769         0         1
     23771     23770     23772         0         1
     23774     23773     23775         0         1
     23777     23776     23778         0         1
     23780     23779     23781         0         1
     23783     23782     23784         0         1
     23786     23785     23787         0         1
     23789     23788     23790         0         1
     23792     23791     23793         0         1
     23795     23794     23796         0         1
     23798     23797     23799         0         1
     23801     23800     23802         0         1
     23804     23803     23805         0         1
     23807     23806     23808         0         1
     23810     23809     23811         0         1
     23813     23812     23814         0         1
     23816     23815     23817         0         1
     23819     23818     23820         0         1
     23822     23821     23823         0         1
     23825     23824     23826         0         1
     23828     23827     23829         0         1
     23831     23830     23832         0         1
     23834     23833     23835         0         1
     23837     23836     23838         0         1
     23840     23839     23841         0         1
     23843     23842     23844         0         1
     23846     23845     23847         0         1
     23849     23848     23850         0         1
     23852     23851     23853         0         1
     23855     23854     23856         0         1
     23858     23857     23859         0         1
     23861     23860     23862         0         1
     23864     23863     23865         0         1
     23867     23866     23868         0         1
     23870     23869     23871         0         1
     23873     23872     23874         0         1
     23876     23875     23877         0         1
     23879     23878     23880         0         1
     23882     23881     23883         0         1
     23885     23884     23886         0         1
     23888     23887     23889         0         1
     23891     23890     23892         0         1
     23894     23893     23895         0         1
     23897     23896     23898         0         1
     23900     23899     23901         0         1
     23903     23902     23904         0         1
     23906     23905     23907         0         1
     23909     23908     23910         0         1
     23912     23911     23913         0         1
     23915     23914     23916         0         1
     23918     23917     23919         0         1
     23921     23920     23922         0         1
     23924     23923     23925         0         1
     23927     23926     23928         0         1
     23930     23929     23931         0         1
     23933     23932     23934         0         1
     23936     23935     23937         0         1
     23939     23938     23940         0         1
     23942     23941     23943         0         1
     23945     23944     23946         0         1
     23948     23947     23949         0         1
     23951     23950     23952         0         1
     23954     23953     23955         0         1
     23957     23956     23958         0         1
     23960     23959     23961         0         1
     23963     23962     23964         0         1
     23966     23965     23967         0         1
     23969     23968     23970         0         1
     23972     23971     23973         0         1
     23975     23974     23976         0         1
     23978     23977     23979         0         1
     23981     23980     23982         0         1
     23984     23983     23985         0         1
     23987     23986     23988         0         1
     23990     23989     23991         0         1
     23993     23992     23994         0         1
     23996     23995     23997         0         1
     23999     23998     24000         0         1
     24002     24001     24003         0         1
     24005     24004     24006         0         1
     24008     24007     24009         0         1
     24011     24010     24012         0         1
     24014     24013     24015         0         1
     24017     24016     24018         0         1
     24020     24019     24021         0         1
     24023     24022     24024         0         1
     24026     24025     24027         0         1
     24029     24028     24030         0         1
     24032     24031     24033         0         1
     24035     24034     24036         0         1
     24038     24037     24039         0         1
     24041     24040     24042         0         1
     24044     24043     24045         0         1
     24047     24046     24048         0         1
     24050     24049     24051         0         1
     24053     24052     24054         0         1
     24056     24055     24057         0         1
     24059     24058     24060         0         1
     24062     24061     24063         0         1
     24065     24064     24066         0         1
     24068     24067     24069         0         1
     24071     24070     24072         0         1
     24074     24073     24075         0         1
     24077     24076     24078         0         1
     24080     24079     24081         0         1
     24083     24082     24084         0         1
     24086     24085     24087         0         1
     24089     24088     24090         0         1
     24092     24091     24093         0         1
     24095     24094     24096         0         1
     24098     24097     24099         0         1
     24101     24100     24102         0         1
     24104     24103     24105         0         1
     24107     24106     24108         0         1
     24110     24109     24111         0         1
     24113     24112     24114         0         1
     24116     24115     24117         0         1
     24119     24118     24120         0         1
     24122     24121     24123         0         1
     24125     24124     24126         0         1
     24128     24127     24129         0         1
     24131     24130     24132         0         1
     24134     24133     24135         0         1
     24137     24136     24138         0         1
     24140     24139     24141         0         1
     24143     24142     24144         0         1
     24146     24145     24147         0         1
     24149     24148     24150         0         1
     24152     24151     24153         0         1
     24155     24154     24156         0         1
     24158     24157     24159         0         1
     24161     24160     24162         0         1
     24164     24163     24165         0         1
     24167     24166     24168         0         1
     24170     24169     24171         0         1
     24173     24172     24174         0         1
     24176     24175     24177         0         1
     24179     24178     24180         0         1
     24182     24181     24183         0         1
     24185     24184     24186         0         1
     24188     24187     24189         0         1
     24191     24190     24192         0         1
     24194     24193     24195         0         1
     24197     24196     24198         0         1
     24200     24199     24201         0         1
     24203     24202     24204         0         1
     24206     24205     24207         0         1
     24209     24208     24210         0         1
     24212     24211     24213         0         1
     24215     24214     24216         0         1
     24218     24217     24219         0         1
     24221     24220     24222         0         1
     24224     24223     24225         0         1
     24227     24226     24228         0         1
     24230     24229     24231         0         1
     24233     24232     24234         0         1
     24236     24235     24237         0         1
     24239     24238     24240         0         1
     24242     24241     24243         0         1
     24245     24244     24246         0         1
     24248     24247     24249         0         1
     24251     24250     24252         0         1
     24254     24253     24255         0         1
     24257     24256     24258         0         1
     24260     24259     24261         0         1
     24263     24262     24264         0         1
     24266     24265     24267         0         1
     24269     24268     24270         0         1
     24272     24271     24273         0         1
     24275     24274     24276         0         1
     24278     24277     24279         0         1
     24281     24280     24282         0         1
     24284     24283     24285         0         1
     24287     24286     24288         0         1
     24290     24289     24291         0         1
     24293     24292     24294         0         1
     24296     24295     24297         0         1
     24299     24298     24300         0         1
     24302     24301     24303         0         1
     24305     24304     24306         0         1
     24308     24307     24309         0         1
     24311     24310     24312         0         1
     24314     24313     24315         0         1
     24317     24316     24318         0         1
     24320     24319     24321         0         1
     24323     24322     24324         0         1
     24326     24325     24327         0         1
     24329     24328     24330         0         1
     24332     24331     24333         0         1
     24335     24334     24336         0         1
     24338     24337     24339         0         1
     24341     24340     24342         0         1
     24344     24343     24345         0         1
     24347     24346     24348         0         1
     24350     24349     24351         0         1
     24353     24352     24354         0         1
     24356     24355     24357         0         1
     24359     24358     24360         0         1
     24362     24361     24363         0         1
     24365     24364     24366         0         1
     24368     24367     24369         0         1
     24371     24370     24372         0         1
     24374     24373     24375         0         1
     24377     24376     24378         0         1
     24380     24379     24381         0         1
     24383     24382     24384         0         1
     24386     24385     24387         0         1
     24389     24388     24390         0         1
     24392     24391     24393         0         1
     24395     24394     24396         0         1
     24398     24397     24399         0         1
     24401     24400     24402         0         1
     24404     24403     24405         0         1
     24407     24406     24408         0         1
     24410     24409     24411         0         1
     24413     24412     24414         0         1
     24416     24415     24417         0         1
     24419     24418     24420         0         1
     24422     24421     24423         0         1
     24425     24424     24426         0         1
     24428     24427     24429         0         1
     24431     24430     24432         0         1
     24434     24433     24435         0         1
     24437     24436     24438         0         1
     24440     24439     24441         0         1
     24443     24442     24444         0         1
     24446     24445     24447         0         1
     24449     24448     24450         0         1
     24452     24451     24453         0         1
     24455     24454     24456         0         1
     24458     24457     24459         0         1
     24461     24460     24462         0         1
     24464     24463     24465         0         1
     24467     24466     24468         0         1
     24470     24469     24471         0         1
     24473     24472     24474         0         1
     24476     24475     24477         0         1
     24479     24478     24480         0         1
     24482     24481     24483         0         1
     24485     24484     24486         0         1
     24488     24487     24489         0         1
     24491     24490     24492         0         1
     24494     24493     24495         0         1
     24497     24496     24498         0         1
     24500     24499     24501         0         1
     24503     24502     24504         0         1
     24506     24505     24507         0         1
     24509     24508     24510         0         1
     24512     24511     24513         0         1
     24515     24514     24516         0         1
     24518     24517     24519         0         1
     24521     24520     24522         0         1
     24524     24523     24525         0         1
     24527     24526     24528         0         1
     24530     24529     24531         0         1
     24533     24532     24534         0         1
     24536     24535     24537         0         1
     24539     24538     24540         0         1
     24542     24541     24543         0         1
     24545     24544     24546         0         1
     24548     24547     24549         0         1
     24551     24550     24552         0         1
     24554     24553     24555         0         1
     24557     24556     24558         0         1
     24560     24559     24561         0         1
     24563     24562     24564         0         1
     24566     24565     24567         0         1
     24569     24568     24570         0         1
     24572     24571     24573         0         1
     24575     24574     24576         0         1
     24578     24577     24579         0         1
     24581     24580     24582         0         1
     24584     24583     24585         0         1
     24587     24586     24588         0         1
     24590     24589     24591         0         1
     24593     24592     24594         0         1
     24596     24595     24597         0         1
     24599     24598     24600         0         1
     24602     24601     24603         0         1
     24605     24604     24606         0         1
     24608     24607     24609         0         1
     24611     24610     24612         0         1
     24614     24613     24615         0         1
     24617     24616     24618         0         1
     24620     24619     24621         0         1
     24623     24622     24624         0         1
     24626     24625     24627         0         1
     24629     24628     24630         0         1
     24632     24631     24633         0         1
     24635     24634     24636         0         1
     24638     24637     24639         0         1
     24641     24640     24642         0         1
     24644     24643     24645         0         1
     24647     24646     24648         0         1
     24650     24649     24651         0         1
     24653     24652     24654         0         1
     24656     24655     24657         0         1
     24659     24658     24660         0         1
     24662     24661     24663         0         1
     24665     24664     24666         0         1
     24668     24667     24669         0         1
     24671     24670     24672         0         1
     24674     24673     24675         0         1
     24677     24676     24678         0         1
     24680     24679     24681         0         1
     24683     24682     24684         0         1
     24686     24685     24687         0         1
     24689     24688     24690         0         1
     24692     24691     24693         0         1
     24695     24694     24696         0         1
     24698     24697     24699         0         1
     24701     24700     24702         0         1
     24704     24703     24705         0         1
     24707     24706     24708         0         1
     24710     24709     24711         0         1
     24713     24712     24714         0         1
     24716     24715     24717         0         1
     24719     24718     24720         0         1
     24722     24721     24723         0         1
     24725     24724     24726         0         1
     24728     24727     24729         0         1
     24731     24730     24732         0         1
     24734     24733     24735         0         1
     24737     24736     24738         0         1
     24740     24739     24741         0         1
     24743     24742     24744         0         1
     24746     24745     24747         0         1
     24749     24748     24750         0         1
     24752     24751     24753         0         1
     24755     24754     24756         0         1
     24758     24757     24759         0         1
     24761     24760     24762         0         1
     24764     24763     24765         0         1
     24767     24766     24768         0         1
     24770     24769     24771         0         1
     24773     24772     24774         0         1
     24776     24775     24777         0         1
     24779     24778     24780         0         1
     24782     24781     24783         0         1
     24785     24784     24786         0         1
     24788     24787     24789         0         1
     24791     24790     24792         0         1
     24794     24793     24795         0         1
     24797     24796     24798         0         1
     24800     24799     24801         0         1
     24803     24802     24804         0         1
     24806     24805     24807         0         1
     24809     24808     24810         0         1
     24812     24811     24813         0         1
     24815     24814     24816         0         1
     24818     24817     24819         0         1
     24821     24820     24822         0         1
     24824     24823     24825         0         1
     24827     24826     24828         0         1
     24830     24829     24831         0         1
     24833     24832     24834         0         1
     24836     24835     24837         0         1
     24839     24838     24840         0         1
     24842     24841     24843         0         1
     24845     24844     24846         0         1
     24848     24847     24849         0         1
     24851     24850     24852         0         1
     24854     24853     24855         0         1
     24857     24856     24858         0         1
     24860     24859     24861         0         1
     24863     24862     24864         0         1
     24866     24865     24867         0         1
     24869     24868     24870         0         1
     24872     24871     24873         0         1
     24875     24874     24876         0         1
     24878     24877     24879         0         1
     24881     24880     24882         0         1
     24884     24883     24885         0         1
     24887     24886     24888         0         1
     24890     24889     24891         0         1
     24893     24892     24894         0         1
     24896     24895     24897         0         1
     24899     24898     24900         0         1
     24902     24901     24903         0         1
     24905     24904     24906         0         1
     24908     24907     24909         0         1
     24911     24910     24912         0         1
     24914     24913     24915         0         1
     24917     24916     24918         0         1
     24920     24919     24921         0         1
     24923     24922     24924         0         1
     24926     24925     24927         0         1
     24929     24928     24930         0         1
     24932     24931     24933         0         1
     24935     24934     24936         0         1
     24938     24937     24939         0         1
     24941     24940     24942         0         1
     24944     24943     24945         0         1
     24947     24946     24948         0         1
     24950     24949     24951         0         1
     24953     24952     24954         0         1
     24956     24955     24957         0         1
     24959     24958     24960         0         1
     24962     24961     24963         0         1
     24965     24964     24966         0         1
     24968     24967     24969         0         1
     24971     24970     24972         0         1
     24974     24973     24975         0         1
     24977     24976     24978         0         1
     24980     24979     24981         0         1
     24983     24982     24984         0         1
     24986     24985     24987         0         1
     24989     24988     24990         0         1
     24992     24991     24993         0         1
     24995     24994     24996         0         1
     24998     24997     24999         0         1
     25001     25000     25002         0         1
     25004     25003     25005         0         1
     25007     25006     25008         0         1
     25010     25009     25011         0         1
     25013     25012     25014         0         1
     25016     25015     25017         0         1
     25019     25018     25020         0         1
     25022     25021     25023         0         1
     25025     25024     25026         0         1
     25028     25027     25029         0         1
     25031     25030     25032         0         1
     25034     25033     25035         0         1
     25037     25036     25038         0         1
     25040     25039     25041         0         1
     25043     25042     25044         0         1
     25046     25045     25047         0         1
     25049     25048     25050         0         1
     25052     25051     25053         0         1
     25055     25054     25056         0         1
     25058     25057     25059         0         1
     25061     25060     25062         0         1
     25064     25063     25065         0         1
     25067     25066     25068         0         1
     25070     25069     25071         0         1
     25073     25072     25074         0         1
     25076     25075     25077         0         1
     25079     25078     25080         0         1
     25082     25081     25083         0         1
     25085     25084     25086         0         1
     25088     25087     25089         0         1
     25091     25090     25092         0         1
     25094     25093     25095         0         1
     25097     25096     25098         0         1
     25100     25099     25101         0         1
     25103     25102     25104         0         1
     25106     25105     25107         0         1
     25109     25108     25110         0         1
     25112     25111     25113         0         1
     25115     25114     25116         0         1
     25118     25117     25119         0         1
     25121     25120     25122         0         1
     25124     25123     25125         0         1
     25127     25126     25128         0         1
     25130     25129     25131         0         1
     25133     25132     25134         0         1
     25136     25135     25137         0         1
     25139     25138     25140         0         1
     25142     25141     25143         0         1
     25145     25144     25146         0         1
     25148     25147     25149         0         1
     25151     25150     25152         0         1
     25154     25153     25155         0         1
     25157     25156     25158         0         1
     25160     25159     25161         0         1
     25163     25162     25164         0         1
     25166     25165     25167         0         1
     25169     25168     25170         0         1
     25172     25171     25173         0         1
     25175     25174     25176         0         1
     25178     25177     25179         0         1
     25181     25180     25182         0         1
     25184     25183     25185         0         1
     25187     25186     25188         0         1
     25190     25189     25191         0         1
     25193     25192     25194         0         1
     25196     25195     25197         0         1
     25199     25198     25200         0         1
     25202     25201     25203         0         1
     25205     25204     25206         0         1
     25208     25207     25209         0         1
     25211     25210     25212         0         1
     25214     25213     25215         0         1
     25217     25216     25218         0         1
     25220     25219     25221         0         1
     25223     25222     25224         0         1
     25226     25225     25227         0         1
     25229     25228     25230         0         1
     25232     25231     25233         0         1
     25235     25234     25236         0         1
     25238     25237     25239         0         1
     25241     25240     25242         0         1
     25244     25243     25245         0         1
     25247     25246     25248         0         1
     25250     25249     25251         0         1
     25253     25252     25254         0         1
     25256     25255     25257         0         1
     25259     25258     25260         0         1
     25262     25261     25263         0         1
     25265     25264     25266         0         1
     25268     25267     25269         0         1
     25271     25270     25272         0         1
     25274     25273     25275         0         1
     25277     25276     25278         0         1
     25280     25279     25281         0         1
     25283     25282     25284         0         1
     25286     25285     25287         0         1
     25289     25288     25290         0         1
     25292     25291     25293         0         1
     25295     25294     25296         0         1
     25298     25297     25299         0         1
     25301     25300     25302         0         1
     25304     25303     25305         0         1
     25307     25306     25308         0         1
     25310     25309     25311         0         1
     25313     25312     25314         0         1
     25316     25315     25317         0         1
     25319     25318     25320         0         1
     25322     25321     25323         0         1
     25325     25324     25326         0         1
     25328     25327     25329         0         1
     25331     25330     25332         0         1
     25334     25333     25335         0         1
     25337     25336     25338         0         1
     25340     25339     25341         0         1
     25343     25342     25344         0         1
     25346     25345     25347         0         1
     25349     25348     25350         0         1
     25352     25351     25353         0         1
     25355     25354     25356         0         1
     25358     25357     25359         0         1
     25361     25360     25362         0         1
     25364     25363     25365         0         1
     25367     25366     25368         0         1
     25370     25369     25371         0         1
     25373     25372     25374         0         1
     25376     25375     25377         0         1
     25379     25378     25380         0         1
     25382     25381     25383         0         1
     25385     25384     25386         0         1
     25388     25387     25389         0         1
     25391     25390     25392         0         1
     25394     25393     25395         0         1
     25397     25396     25398         0         1
     25400     25399     25401         0         1
     25403     25402     25404         0         1
     25406     25405     25407         0         1
     25409     25408     25410         0         1
     25412     25411     25413         0         1
     25415     25414     25416         0         1
     25418     25417     25419         0         1
     25421     25420     25422         0         1
     25424     25423     25425         0         1
     25427     25426     25428         0         1
     25430     25429     25431         0         1
     25433     25432     25434         0         1
     25436     25435     25437         0         1
     25439     25438     25440         0         1
     25442     25441     25443         0         1
     25445     25444     25446         0         1
     25448     25447     25449         0         1
     25451     25450     25452         0         1
     25454     25453     25455         0         1
     25457     25456     25458         0         1
     25460     25459     25461         0         1
     25463     25462     25464         0         1
     25466     25465     25467         0         1
     25469     25468     25470         0         1
     25472     25471     25473         0         1
     25475     25474     25476         0         1
     25478     25477     25479         0         1
     25481     25480     25482         0         1
     25484     25483     25485         0         1
     25487     25486     25488         0         1
     25490     25489     25491         0         1
     25493     25492     25494         0         1
     25496     25495     25497         0         1
     25499     25498     25500         0         1
     25502     25501     25503         0         1
     25505     25504     25506         0         1
     25508     25507     25509         0         1
     25511     25510     25512         0         1
     25514     25513     25515         0         1
     25517     25516     25518         0         1
     25520     25519     25521         0         1
     25523     25522     25524         0         1
     25526     25525     25527         0         1
     25529     25528     25530         0         1
     25532     25531     25533         0         1
     25535     25534     25536         0         1
     25538     25537     25539         0         1
     25541     25540     25542         0         1
     25544     25543     25545         0         1
     25547     25546     25548         0         1
     25550     25549     25551         0         1
     25553     25552     25554         0         1
     25556     25555     25557         0         1
     25559     25558     25560         0         1
     25562     25561     25563         0         1
     25565     25564     25566         0         1
     25568     25567     25569         0         1
     25571     25570     25572         0         1
     25574     25573     25575         0         1
     25577     25576     25578         0         1
     25580     25579     25581         0         1
     25583     25582     25584         0         1
     25586     25585     25587         0         1
     25589     25588     25590         0         1
     25592     25591     25593         0         1
     25595     25594     25596         0         1
     25598     25597     25599         0         1
     25601     25600     25602         0         1
     25604     25603     25605         0         1
     25607     25606     25608         0         1
     25610     25609     25611         0         1
     25613     25612     25614         0         1
     25616     25615     25617         0         1
     25619     25618     25620         0         1
     25622     25621     25623         0         1
     25625     25624     25626         0         1
     25628     25627     25629         0         1
     25631     25630     25632         0         1
     25634     25633     25635         0         1
     25637     25636     25638         0         1
     25640     25639     25641         0         1
     25643     25642     25644         0         1
     25646     25645     25647         0         1
     25649     25648     25650         0         1
     25652     25651     25653         0         1
     25655     25654     25656         0         1
     25658     25657     25659         0         1
     25661     25660     25662         0         1
     25664     25663     25665         0         1
     25667     25666     25668         0         1
     25670     25669     25671         0         1
     25673     25672     25674         0         1
     25676     25675     25677         0         1
     25679     25678     25680         0         1
     25682     25681     25683         0         1
     25685     25684     25686         0         1
     25688     25687     25689         0         1
     25691     25690     25692         0         1
     25694     25693     25695         0         1
     25697     25696     25698         0         1
     25700     25699     25701         0         1
     25703     25702     25704         0         1
     25706     25705     25707         0         1
     25709     25708     25710         0         1
     25712     25711     25713         0         1
     25715     25714     25716         0         1
     25718     25717     25719         0         1
     25721     25720     25722         0         1
     25724     25723     25725         0         1
     25727     25726     25728         0         1
     25730     25729     25731         0         1
     25733     25732     25734         0         1
     25736     25735     25737         0         1
     25739     25738     25740         0         1
     25742     25741     25743         0         1
     25745     25744     25746         0         1
     25748     25747     25749         0         1
     25751     25750     25752         0         1
     25754     25753     25755         0         1
     25757     25756     25758         0         1
     25760     25759     25761         0         1
     25763     25762     25764         0         1
     25766     25765     25767         0         1
     25769     25768     25770         0         1
     25772     25771     25773         0         1
     25775     25774     25776         0         1
     25778     25777     25779         0         1
     25781     25780     25782         0         1
     25784     25783     25785         0         1
     25787     25786     25788         0         1
     25790     25789     25791         0         1
     25793     25792     25794         0         1
     25796     25795     25797         0         1
     25799     25798     25800         0         1
     25802     25801     25803         0         1
     25805     25804     25806         0         1
     25808     25807     25809         0         1
     25811     25810     25812         0         1
     25814     25813     25815         0         1
     25817     25816     25818         0         1
     25820     25819     25821         0         1
     25823     25822     25824         0         1
     25826     25825     25827         0         1
     25829     25828     25830         0         1
     25832     25831     25833         0         1
     25835     25834     25836         0         1
     25838     25837     25839         0         1
     25841     25840     25842         0         1
     25844     25843     25845         0         1
     25847     25846     25848         0         1
     25850     25849     25851         0         1
     25853     25852     25854         0         1
     25856     25855     25857         0         1
     25859     25858     25860         0         1
     25862     25861     25863         0         1
     25865     25864     25866         0         1
     25868     25867     25869         0         1
     25871     25870     25872         0         1
     25874     25873     25875         0         1
     25877     25876     25878         0         1
     25880     25879     25881         0         1
     25883     25882     25884         0         1
     25886     25885     25887         0         1
     25889     25888     25890         0         1
     25892     25891     25893         0         1
     25895     25894     25896         0         1
     25898     25897     25899         0         1
     25901     25900     25902         0         1
     25904     25903     25905         0         1
     25907     25906     25908         0         1
     25910     25909     25911         0         1
     25913     25912     25914         0         1
     25916     25915     25917         0         1
     25919     25918     25920         0         1
     25922     25921     25923         0         1
     25925     25924     25926         0         1
     25928     25927     25929         0         1
     25931     25930     25932         0         1
     25934     25933     25935         0         1
     25937     25936     25938         0         1
     25940     25939     25941         0         1
     25943     25942     25944         0         1
     25946     25945     25947         0         1
     25949     25948     25950         0         1
     25952     25951     25953         0         1
     25955     25954     25956         0         1
     25958     25957     25959         0         1
     25961     25960     25962         0         1
     25964     25963     25965         0         1
     25967     25966     25968         0         1
     25970     25969     25971         0         1
     25973     25972     25974         0         1
     25976     25975     25977         0         1
     25979     25978     25980         0         1
     25982     25981     25983         0         1
     25985     25984     25986         0         1
     25988     25987     25989         0         1
     25991     25990     25992         0         1
     25994     25993     25995         0         1
     25997     25996     25998         0         1
     26000     25999     26001         0         1
     26003     26002     26004         0         1
     26006     26005     26007         0         1
     26009     26008     26010         0         1
     26012     26011     26013         0         1
     26015     26014     26016         0         1
     26018     26017     26019         0         1
     26021     26020     26022         0         1
     26024     26023     26025         0         1
     26027     26026     26028         0         1
     26030     26029     26031         0         1
     26033     26032     26034         0         1
     26036     26035     26037         0         1
     26039     26038     26040         0         1
     26042     26041     26043         0         1
     26045     26044     26046         0         1
     26048     26047     26049         0         1
     26051     26050     26052         0         1
     26054     26053     26055         0         1
     26057     26056     26058         0         1
     26060     26059     26061         0         1
     26063     26062     26064         0         1
     26066     26065     26067         0         1
     26069     26068     26070         0         1
     26072     26071     26073         0         1
     26075     26074     26076         0         1
     26078     26077     26079         0         1
     26081     26080     26082         0         1
     26084     26083     26085         0         1
     26087     26086     26088         0         1
     26090     26089     26091         0         1
     26093     26092     26094         0         1
     26096     26095     26097         0         1
     26099     26098     26100         0         1
     26102     26101     26103         0         1
     26105     26104     26106         0         1
     26108     26107     26109         0         1
     26111     26110     26112         0         1
     26114     26113     26115         0         1
     26117     26116     26118         0         1
     26120     26119     26121         0         1
     26123     26122     26124         0         1
     26126     26125     26127         0         1
     26129     26128     26130         0         1
     26132     26131     26133         0         1
     26135     26134     26136         0         1
     26138     26137     26139         0         1
     26141     26140     26142         0         1
     26144     26143     26145         0         1
     26147     26146     26148         0         1
     26150     26149     26151         0         1
     26153     26152     26154         0         1
     26156     26155     26157         0         1
     26159     26158     26160         0         1
     26162     26161     26163         0         1
     26165     26164     26166         0         1
     26168     26167     26169         0         1
     26171     26170     26172         0         1
     26174     26173     26175         0         1
     26177     26176     26178         0         1
     26180     26179     26181         0         1
     26183     26182     26184         0         1
     26186     26185     26187         0         1
     26189     26188     26190         0         1
     26192     26191     26193         0         1
     26195     26194     26196         0         1
     26198     26197     26199         0         1
     26201     26200     26202         0         1
     26204     26203     26205         0         1
     26207     26206     26208         0         1
     26210     26209     26211         0         1
     26213     26212     26214         0         1
     26216     26215     26217         0         1
     26219     26218     26220         0         1
     26222     26221     26223         0         1
     26225     26224     26226         0         1
     26228     26227     26229         0         1
     26231     26230     26232         0         1
     26234     26233     26235         0         1
     26237     26236     26238         0         1
     26240     26239     26241         0         1
     26243     26242     26244         0         1
     26246     26245     26247         0         1
     26249     26248     26250         0         1
     26252     26251     26253         0         1
     26255     26254     26256         0         1
     26258     26257     26259         0         1
     26261     26260     26262         0         1
     26264     26263     26265         0         1
     26267     26266     26268         0         1
     26270     26269     26271         0         1
     26273     26272     26274         0         1
     26276     26275     26277         0         1
     26279     26278     26280         0         1
     26282     26281     26283         0         1
     26285     26284     26286         0         1
     26288     26287     26289         0         1
     26291     26290     26292         0         1
     26294     26293     26295         0         1
     26297     26296     26298         0         1
     26300     26299     26301         0         1
     26303     26302     26304         0         1
     26306     26305     26307         0         1
     26309     26308     26310         0         1
     26312     26311     26313         0         1
     26315     26314     26316         0         1
     26318     26317     26319         0         1
     26321     26320     26322         0         1
     26324     26323     26325         0         1
     26327     26326     26328         0         1
     26330     26329     26331         0         1
     26333     26332     26334         0         1
     26336     26335     26337         0         1
     26339     26338     26340         0         1
     26342     26341     26343         0         1
     26345     26344     26346         0         1
     26348     26347     26349         0         1
     26351     26350     26352         0         1
     26354     26353     26355         0         1
     26357     26356     26358         0         1
     26360     26359     26361         0         1
     26363     26362     26364         0         1
     26366     26365     26367         0         1
     26369     26368     26370         0         1
     26372     26371     26373         0         1
     26375     26374     26376         0         1
     26378     26377     26379         0         1
     26381     26380     26382         0         1
     26384     26383     26385         0         1
     26387     26386     26388         0         1
     26390     26389     26391         0         1
     26393     26392     26394         0         1
     26396     26395     26397         0         1
     26399     26398     26400         0         1
     26402     26401     26403         0         1
     26405     26404     26406         0         1
     26408     26407     26409         0         1
     26411     26410     26412         0         1
     26414     26413     26415         0         1
     26417     26416     26418         0         1
     26420     26419     26421         0         1
     26423     26422     26424         0         1
     26426     26425     26427         0         1
     26429     26428     26430         0         1
     26432     26431     26433         0         1
     26435     26434     26436         0         1
     26438     26437     26439         0         1
     26441     26440     26442         0         1
     26444     26443     26445         0         1
     26447     26446     26448         0         1
     26450     26449     26451         0         1
     26453     26452     26454         0         1
     26456     26455     26457         0         1
     26459     26458     26460         0         1
     26462     26461     26463         0         1
     26465     26464     26466         0         1
     26468     26467     26469         0         1
     26471     26470     26472         0         1
     26474     26473     26475         0         1
     26477     26476     26478         0         1
     26480     26479     26481         0         1
     26483     26482     26484         0         1
     26486     26485     26487         0         1
     26489     26488     26490         0         1
     26492     26491     26493         0         1
     26495     26494     26496         0         1
     26498     26497     26499         0         1
     26501     26500     26502         0         1
     26504     26503     26505         0         1
     26507     26506     26508         0         1
     26510     26509     26511         0         1
     26513     26512     26514         0         1
     26516     26515     26517         0         1
     26519     26518     26520         0         1
     26522     26521     26523         0         1
     26525     26524     26526         0         1
     26528     26527     26529         0         1
     26531     26530     26532         0         1
     26534     26533     26535         0         1
     26537     26536     26538         0         1
     26540     26539     26541         0         1
     26543     26542     26544         0         1
     26546     26545     26547         0         1
     26549     26548     26550         0         1
     26552     26551     26553         0         1
     26555     26554     26556         0         1
     26558     26557     26559         0         1
     26561     26560     26562         0         1
     26564     26563     26565         0         1
     26567     26566     26568         0         1
     26570     26569     26571         0         1
     26573     26572     26574         0         1
     26576     26575     26577         0         1
     26579     26578     26580         0         1
     26582     26581     26583         0         1
     26585     26584     26586         0         1
     26588     26587     26589         0         1
     26591     26590     26592         0         1
     26594     26593     26595         0         1
     26597     26596     26598         0         1
     26600     26599     26601         0         1
     26603     26602     26604         0         1
     26606     26605     26607         0         1
     26609     26608     26610         0         1
     26612     26611     26613         0         1
     26615     26614     26616         0         1
     26618     26617     26619         0         1
     26621     26620     26622         0         1
     26624     26623     26625         0         1
     26627     26626     26628         0         1
     26630     26629     26631         0         1
     26633     26632     26634         0         1
     26636     26635     26637         0         1
     26639     26638     26640         0         1
     26642     26641     26643         0         1
     26645     26644     26646         0         1
     26648     26647     26649         0         1
     26651     26650     26652         0         1
     26654     26653     26655         0         1
     26657     26656     26658         0         1
     26660     26659     26661         0         1
     26663     26662     26664         0         1
     26666     26665     26667         0         1
     26669     26668     26670         0         1
     26672     26671     26673         0         1
     26675     26674     26676         0         1
     26678     26677     26679         0         1
     26681     26680     26682         0         1
     26684     26683     26685         0         1
     26687     26686     26688         0         1
     26690     26689     26691         0         1
     26693     26692     26694         0         1
     26696     26695     26697         0         1
     26699     26698     26700         0         1
     26702     26701     26703         0         1
     26705     26704     26706         0         1
     26708     26707     26709         0         1
     26711     26710     26712         0         1
     26714     26713     26715         0         1
     26717     26716     26718         0         1
     26720     26719     26721         0         1
     26723     26722     26724         0         1
     26726     26725     26727         0         1
     26729     26728     26730         0         1
     26732     26731     26733         0         1
     26735     26734     26736         0         1
     26738     26737     26739         0         1
     26741     26740     26742         0         1
     26744     26743     26745         0         1
     26747     26746     26748         0         1
     26750     26749     26751         0         1
     26753     26752     26754         0         1
     26756     26755     26757         0         1
     26759     26758     26760         0         1
     26762     26761     26763         0         1
     26765     26764     26766         0         1
     26768     26767     26769         0         1
     26771     26770     26772         0         1
     26774     26773     26775         0         1
     26777     26776     26778         0         1
     26780     26779     26781         0         1
     26783     26782     26784         0         1
     26786     26785     26787         0         1
     26789     26788     26790         0         1
     26792     26791     26793         0         1
     26795     26794     26796         0         1
     26798     26797     26799         0         1
     26801     26800     26802         0         1
     26804     26803     26805         0         1
     26807     26806     26808         0         1
     26810     26809     26811         0         1
     26813     26812     26814         0         1
     26816     26815     26817         0         1
     26819     26818     26820         0         1
     26822     26821     26823         0         1
     26825     26824     26826         0         1
     26828     26827     26829         0         1
     26831     26830     26832         0         1
     26834     26833     26835         0         1
     26837     26836     26838         0         1
     26840     26839     26841         0         1
     26843     26842     26844         0         1
     26846     26845     26847         0         1
     26849     26848     26850         0         1
     26852     26851     26853         0         1
     26855     26854     26856         0         1
     26858     26857     26859         0         1
     26861     26860     26862         0         1
     26864     26863     26865         0         1
     26867     26866     26868         0         1
     26870     26869     26871         0         1
     26873     26872     26874         0         1
     26876     26875     26877         0         1
     26879     26878     26880         0         1
     26882     26881     26883         0         1
     26885     26884     26886         0         1
     26888     26887     26889         0         1
     26891     26890     26892         0         1
     26894     26893     26895         0         1
     26897     26896     26898         0         1
     26900     26899     26901         0         1
     26903     26902     26904         0         1
     26906     26905     26907         0         1
     26909     26908     26910         0         1
     26912     26911     26913         0         1
     26915     26914     26916         0         1
     26918     26917     26919         0         1
     26921     26920     26922         0         1
     26924     26923     26925         0         1
     26927     26926     26928         0         1
     26930     26929     26931         0         1
     26933     26932     26934         0         1
     26936     26935     26937         0         1
     26939     26938     26940         0         1
     26942     26941     26943         0         1
     26945     26944     26946         0         1
     26948     26947     26949         0         1
     26951     26950     26952         0         1
     26954     26953     26955         0         1
     26957     26956     26958         0         1
     26960     26959     26961         0         1
     26963     26962     26964         0         1
     26966     26965     26967         0         1
     26969     26968     26970         0         1
     26972     26971     26973         0         1
     26975     26974     26976         0         1
     26978     26977     26979         0         1
     26981     26980     26982         0         1
     26984     26983     26985         0         1
     26987     26986     26988         0         1
     26990     26989     26991         0         1
     26993     26992     26994         0         1
     26996     26995     26997         0         1
     26999     26998     27000         0         1
     27002     27001     27003         0         1
     27005     27004     27006         0         1
     27008     27007     27009         0         1
     27011     27010     27012         0         1
     27014     27013     27015         0         1
     27017     27016     27018         0         1
     27020     27019     27021         0         1
     27023     27022     27024         0         1
     27026     27025     27027         0         1
     27029     27028     27030         0         1
     27032     27031     27033         0         1
     27035     27034     27036         0         1
     27038     27037     27039         0         1
     27041     27040     27042         0         1
     27044     27043     27045         0         1
     27047     27046     27048         0         1
     27050     27049     27051         0         1
     27053     27052     27054         0         1
     27056     27055     27057         0         1
     27059     27058     27060         0         1
     27062     27061     27063         0         1
     27065     27064     27066         0         1
     27068     27067     27069         0         1
     27071     27070     27072         0         1
     27074     27073     27075         0         1
     27077     27076     27078         0         1
     27080     27079     27081         0         1
     27083     27082     27084         0         1
     27086     27085     27087         0         1
     27089     27088     27090         0         1
     27092     27091     27093         0         1
     27095     27094     27096         0         1
     27098     27097     27099         0         1
     27101     27100     27102         0         1
     27104     27103     27105         0         1
     27107     27106     27108         0         1
     27110     27109     27111         0         1
     27113     27112     27114         0         1
     27116     27115     27117         0         1
     27119     27118     27120         0         1
     27122     27121     27123         0         1
     27125     27124     27126         0         1
     27128     27127     27129         0         1
     27131     27130     27132         0         1
     27134     27133     27135         0         1
     27137     27136     27138         0         1
     27140     27139     27141         0         1
     27143     27142     27144         0         1
     27146     27145     27147         0         1
     27149     27148     27150         0         1
     27152     27151     27153         0         1
     27155     27154     27156         0         1
     27158     27157     27159         0         1
     27161     27160     27162         0         1
     27164     27163     27165         0         1
     27167     27166     27168         0         1
     27170     27169     27171         0         1
     27173     27172     27174         0         1
     27176     27175     27177         0         1
     27179     27178     27180         0         1
     27182     27181     27183         0         1
     27185     27184     27186         0         1
     27188     27187     27189         0         1
     27191     27190     27192         0         1
     27194     27193     27195         0         1
     27197     27196     27198         0         1
     27200     27199     27201         0         1
     27203     27202     27204         0         1
     27206     27205     27207         0         1
     27209     27208     27210         0         1
     27212     27211     27213         0         1
     27215     27214     27216         0         1
     27218     27217     27219         0         1
     27221     27220     27222         0         1
     27224     27223     27225         0         1
     27227     27226     27228         0         1
     27230     27229     27231         0         1
     27233     27232     27234         0         1
     27236     27235     27237         0         1
     27239     27238     27240         0         1
     27242     27241     27243         0         1
     27245     27244     27246         0         1
     27248     27247     27249         0         1
     27251     27250     27252         0         1
     27254     27253     27255         0         1
     27257     27256     27258         0         1
     27260     27259     27261         0         1
     27263     27262     27264         0         1
     27266     27265     27267         0         1
     27269     27268     27270         0         1
     27272     27271     27273         0         1
     27275     27274     27276         0         1
     27278     27277     27279         0         1
     27281     27280     27282         0         1
     27284     27283     27285         0         1
     27287     27286     27288         0         1
     27290     27289     27291         0         1
     27293     27292     27294         0         1
     27296     27295     27297         0         1
     27299     27298     27300         0         1
     27302     27301     27303         0         1
     27305     27304     27306         0         1
     27308     27307     27309         0         1
     27311     27310     27312         0         1
     27314     27313     27315         0         1
     27317     27316     27318         0         1
     27320     27319     27321         0         1
     27323     27322     27324         0         1
     27326     27325     27327         0         1
     27329     27328     27330         0         1
     27332     27331     27333         0         1
     27335     27334     27336         0         1
     27338     27337     27339         0         1
     27341     27340     27342         0         1
     27344     27343     27345         0         1
     27347     27346     27348         0         1
     27350     27349     27351         0         1
     27353     27352     27354         0         1
     27356     27355     27357         0         1
     27359     27358     27360         0         1
     27362     27361     27363         0         1
     27365     27364     27366         0         1
     27368     27367     27369         0         1
     27371     27370     27372         0         1
     27374     27373     27375         0         1
     27377     27376     27378         0         1
     27380     27379     27381         0         1
     27383     27382     27384         0         1
     27386     27385     27387         0         1
     27389     27388     27390         0         1
     27392     27391     27393         0         1
     27395     27394     27396         0         1
     27398     27397     27399         0         1
     27401     27400     27402         0         1
     27404     27403     27405         0         1
     27407     27406     27408         0         1
     27410     27409     27411         0         1
     27413     27412     27414         0         1
     27416     27415     27417         0         1
     27419     27418     27420         0         1
     27422     27421     27423         0         1
     27425     27424     27426         0         1
     27428     27427     27429         0         1
     27431     27430     27432         0         1
     27434     27433     27435         0         1
     27437     27436     27438         0         1
     27440     27439     27441         0         1
     27443     27442     27444         0         1
     27446     27445     27447         0         1
     27449     27448     27450         0         1
     27452     27451     27453         0         1
     27455     27454     27456         0         1
     27458     27457     27459         0         1
     27461     27460     27462         0         1
     27464     27463     27465         0         1
     27467     27466     27468         0         1
     27470     27469     27471         0         1
     27473     27472     27474         0         1
     27476     27475     27477         0         1
     27479     27478     27480         0         1
     27482     27481     27483         0         1
     27485     27484     27486         0         1
     27488     27487     27489         0         1
     27491     27490     27492         0         1
     27494     27493     27495         0         1
     27497     27496     27498         0         1
     27500     27499     27501         0         1
     27503     27502     27504         0         1
     27506     27505     27507         0         1
     27509     27508     27510         0         1
     27512     27511     27513         0         1
     27515     27514     27516         0         1
     27518     27517     27519         0         1
     27521     27520     27522         0         1
     27524     27523     27525         0         1
     27527     27526     27528         0         1
     27530     27529     27531         0         1
     27533     27532     27534         0         1
     27536     27535     27537         0         1
     27539     27538     27540         0         1
     27542     27541     27543         0         1
     27545     27544     27546         0         1
     27548     27547     27549         0         1
     27551     27550     27552         0         1
     27554     27553     27555         0         1
     27557     27556     27558         0         1
     27560     27559     27561         0         1
     27563     27562     27564         0         1
     27566     27565     27567         0         1
     27569     27568     27570         0         1
     27572     27571     27573         0         1
     27575     27574     27576         0         1
     27578     27577     27579         0         1
     27581     27580     27582         0         1
     27584     27583     27585         0         1
     27587     27586     27588         0         1
     27590     27589     27591         0         1
     27593     27592     27594         0         1
     27596     27595     27597         0         1
     27599     27598     27600         0         1
     27602     27601     27603         0         1
     27605     27604     27606         0         1
     27608     27607     27609         0         1
     27611     27610     27612         0         1
     27614     27613     27615         0         1
     27617     27616     27618         0         1
     27620     27619     27621         0         1
     27623     27622     27624         0         1
     27626     27625     27627         0         1
     27629     27628     27630         0         1
     27632     27631     27633         0         1
     27635     27634     27636         0         1
     27638     27637     27639         0         1
     27641     27640     27642         0         1
     27644     27643     27645         0         1
     27647     27646     27648         0         1
     27650     27649     27651         0         1
     27653     27652     27654         0         1
     27656     27655     27657         0         1
     27659     27658     27660         0         1
     27662     27661     27663         0         1
     27665     27664     27666         0         1
     27668     27667     27669         0         1
     27671     27670     27672         0         1
     27674     27673     27675         0         1
     27677     27676     27678         0         1
     27680     27679     27681         0         1
     27683     27682     27684         0         1
     27686     27685     27687         0         1
     27689     27688     27690         0         1
     27692     27691     27693         0         1
     27695     27694     27696         0         1
     27698     27697     27699         0         1
     27701     27700     27702         0         1
     27704     27703     27705         0         1
     27707     27706     27708         0         1
     27710     27709     27711         0         1
     27713     27712     27714         0         1
     27716     27715     27717         0         1
     27719     27718     27720         0         1
     27722     27721     27723         0         1
     27725     27724     27726         0         1
     27728     27727     27729         0         1
     27731     27730     27732         0         1
     27734     27733     27735         0         1
     27737     27736     27738         0         1
     27740     27739     27741         0         1
     27743     27742     27744         0         1
     27746     27745     27747         0         1
     27749     27748     27750         0         1
     27752     27751     27753         0         1
     27755     27754     27756         0         1
     27758     27757     27759         0         1
     27761     27760     27762         0         1
     27764     27763     27765         0         1
     27767     27766     27768         0         1
     27770     27769     27771         0         1
     27773     27772     27774         0         1
     27776     27775     27777         0         1
     27779     27778     27780         0         1
     27782     27781     27783         0         1
     27785     27784     27786         0         1
     27788     27787     27789         0         1
     27791     27790     27792         0         1
     27794     27793     27795         0         1
     27797     27796     27798         0         1
     27800     27799     27801         0         1
     27803     27802     27804         0         1
     27806     27805     27807         0         1
     27809     27808     27810         0         1
     27812     27811     27813         0         1
     27815     27814     27816         0         1
     27818     27817     27819         0         1
     27821     27820     27822         0         1
     27824     27823     27825         0         1
     27827     27826     27828         0         1
     27830     27829     27831         0         1
     27833     27832     27834         0         1
     27836     27835     27837         0         1
     27839     27838     27840         0         1
     27842     27841     27843         0         1
     27845     27844     27846         0         1
     27848     27847     27849         0         1
     27851     27850     27852         0         1
     27854     27853     27855         0         1
     27857     27856     27858         0         1
     27860     27859     27861         0         1
     27863     27862     27864         0         1
     27866     27865     27867         0         1
     27869     27868     27870         0         1
     27872     27871     27873         0         1
     27875     27874     27876         0         1
     27878     27877     27879         0         1
     27881     27880     27882         0         1
     27884     27883     27885         0         1
     27887     27886     27888         0         1
     27890     27889     27891         0         1
     27893     27892     27894         0         1
     27896     27895     27897         0         1
     27899     27898     27900         0         1
     27902     27901     27903         0         1
     27905     27904     27906         0         1
     27908     27907     27909         0         1
     27911     27910     27912         0         1
     27914     27913     27915         0         1
     27917     27916     27918         0         1
     27920     27919     27921         0         1
     27923     27922     27924         0         1
     27926     27925     27927         0         1
     27929     27928     27930         0         1
     27932     27931     27933         0         1
     27935     27934     27936         0         1
     27938     27937     27939         0         1
     27941     27940     27942         0         1
     27944     27943     27945         0         1
     27947     27946     27948         0         1
     27950     27949     27951         0         1
     27953     27952     27954         0         1
     27956     27955     27957         0         1
     27959     27958     27960         0         1
     27962     27961     27963         0         1
     27965     27964     27966         0         1
     27968     27967     27969         0         1
     27971     27970     27972         0         1
     27974     27973     27975         0         1
     27977     27976     27978         0         1
     27980     27979     27981         0         1
     27983     27982     27984         0         1
     27986     27985     27987         0         1
     27989     27988     27990         0         1
     27992     27991     27993         0         1
     27995     27994     27996         0         1
     27998     27997     27999         0         1
     28001     28000     28002         0         1
     28004     28003     28005         0         1
     28007     28006     28008         0         1
     28010     28009     28011         0         1
     28013     28012     28014         0         1
     28016     28015     28017         0         1
     28019     28018     28020         0         1
     28022     28021     28023         0         1
     28025     28024     28026         0         1
     28028     28027     28029         0         1
     28031     28030     28032         0         1
     28034     28033     28035         0         1
     28037     28036     28038         0         1
     28040     28039     28041         0         1
     28043     28042     28044         0         1
     28046     28045     28047         0         1
     28049     28048     28050         0         1
     28052     28051     28053         0         1
     28055     28054     28056         0         1
     28058     28057     28059         0         1
     28061     28060     28062         0         1
     28064     28063     28065         0         1
     28067     28066     28068         0         1
     28070     28069     28071         0         1
     28073     28072     28074         0         1
